<LesHouchesEvents version="1.0">
<init>
   11  -11    0.7900000000E+02    0.7900000000E+02    0    0    0    0    3    1
0.1  1.0e-06  1.000000e+00   9999
</init>
<event>
   18 9999    1    0.9119999695E+02    0.7565275169E-02    0.1185000000E+00
   11   -1    0    0    0    0    0.0000000000E+00    0.0000000000E+00    0.8000000000E+02    0.8000000000E+02    0.5109988851E-03    0    0
  -11   -1    0    0    0    0    0.0000000000E+00    0.0000000000E+00   -0.8000000000E+02    0.8000000000E+02    0.5109988851E-03    0    0
  -24    2    1    2    0    0   -0.5772874832E+01    0.4836671352E+01    0.2440983391E+02    0.7937210846E+02    0.7514900208E+02    0    0
   24    2    1    2    0    0    0.5772874832E+01   -0.4836671352E+01   -0.2440983391E+02    0.8062789154E+02    0.7647415924E+02    0    0
   15    2    3    3    0    0   -0.3446318150E+01   -0.3479947662E+02    0.5683047771E+01    0.3547302628E+02    0.1777029991E+01    0    0
  -16    1    3    3    0    0   -0.2326556683E+01    0.3963614655E+02    0.1872678566E+02    0.4389908218E+02    0.0000000000E+00    0    0
   16    1    4    4    0    0    0.2085791016E+02   -0.8138416290E+01    0.2217863274E+02    0.3151472664E+02    0.0000000000E+00    0    0
  -15    2    4    4    0    0   -0.1508503628E+02    0.3301745415E+01   -0.4658846664E+02    0.4911316299E+02    0.1777029991E+01    0    0
   16    1    5    5    0    0   -0.1045395255E+01   -0.9226918221E+01    0.1682559848E+01    0.9437154770E+01    0.6328259478E-03    0    0
  -24    2    5    5    0    0   -0.2401058197E+01   -0.2557392502E+02    0.4000711441E+01    0.2603726578E+02    0.1463808179E+01    0    0
  221    1   10   10    0    0   -0.5328789949E+00   -0.4964757442E+01    0.8378238678E+00    0.5092730999E+01    0.5488000512E+00    0    0
 -211    1   10   10    0    0   -0.1252433658E+01   -0.1562853146E+02    0.2586996317E+01    0.1589124298E+02    0.1395678222E+00    0    0
  111    1   10   10    0    0   -0.6157458425E+00   -0.4980638981E+01    0.5758917928E+00    0.5053293228E+01    0.1349639893E+00    0    0
  -16    1    8    8    0    0   -0.4619365215E+01    0.8166117668E+00   -0.1441999435E+02    0.1516382599E+02    0.5285799489E-04    0    0
   24    2    8    8    0    0   -0.1046626472E+02    0.2485263586E+01   -0.3217030716E+02    0.3395127106E+02    0.1428630352E+01    0    0
  211    1   15   15    0    0   -0.1855492353E+01    0.6128950715E+00   -0.6151825905E+01    0.6456232071E+01    0.1395678371E+00    0    0
  310    1   15   15    0    0   -0.5491704941E+01    0.1656608582E+01   -0.1713145256E+02    0.1807311630E+02    0.4977199137E+00    0    0
  111    1   15   15    0    0   -0.3119068146E+01    0.2157600373E+00   -0.8887030602E+01    0.9421924591E+01    0.1349640489E+00    0    0
</event>
<event>
   24 9999    1    0.9119999695E+02    0.7565275169E-02    0.1185000000E+00
   11   -1    0    0    0    0    0.0000000000E+00    0.0000000000E+00    0.8000000000E+02    0.8000000000E+02    0.5109988851E-03    0    0
  -11   -1    0    0    0    0    0.0000000000E+00    0.0000000000E+00   -0.8000000000E+02    0.8000000000E+02    0.5109988851E-03    0    0
  -24    2    1    2    0    0    0.1537183952E+02   -0.6042318821E+01    0.2384989023E+01    0.8008901215E+02    0.7833108521E+02    0    0
   24    2    1    2    0    0   -0.1537152290E+02    0.6042554855E+01   -0.2382789135E+01    0.7990875244E+02    0.7814688110E+02    0    0
   22    1    1    2    0    0   -0.3166131792E-03   -0.2358663769E-03   -0.2199911512E-02    0.2235058695E-02    0.0000000000E+00    0    0
   15    2    3    3    0    0   -0.1686572647E+02    0.2164678574E+02   -0.1809162521E+02    0.3291657257E+02    0.1777029991E+01    0    0
  -16    1    3    3    0    0    0.3223756790E+02   -0.2768910408E+02    0.2047661400E+02    0.4717243958E+02    0.0000000000E+00    0    0
   16    1    4    4    0    0   -0.7802595139E+01    0.3458274841E+02    0.2068924904E+02    0.4104743576E+02    0.0000000000E+00    0    0
  -15    2    4    4    0    0   -0.6070406437E+01   -0.2184622192E+02   -0.2247643852E+02    0.3197585678E+02    0.1777029991E+01    0    0
   22    1    4    4    0    0   -0.1498521209E+01   -0.6693972588E+01   -0.5956004858E+00    0.6885460854E+01    0.0000000000E+00    0    0
   16    1    6    6    0    0   -0.1654319406E+01    0.1919308543E+01   -0.1482736588E+01    0.2935817719E+01    0.3479539300E-03    0    0
  -24    2    6    6    0    0   -0.1521207142E+02    0.1972832870E+02   -0.1660960197E+02    0.2998205185E+02    0.1559000611E+01    0    0
 -211    1   12   12    0    0   -0.5600718021E+01    0.7080669403E+01   -0.5772018433E+01    0.1071632385E+02    0.1395678073E+00    0    0
 -211    1   12   12    0    0   -0.5114974380E+00    0.8598228097E+00   -0.7155939937E+00    0.1237933278E+01    0.1395679116E+00    0    0
  211    1   12   12    0    0   -0.9536882639E+00    0.1301084161E+01   -0.1207690597E+01    0.2019984484E+01    0.1395680010E+00    0    0
  111    1   12   12    0    0   -0.3575168371E+01    0.4213418484E+01   -0.3482934475E+01    0.6533281803E+01    0.1349640042E+00    0    0
  111    1   12   12    0    0   -0.4571000099E+01    0.6273334026E+01   -0.5431363583E+01    0.9474528313E+01    0.1349639297E+00    0    0
  -16    1    9    9    0    0   -0.6467298865E+00   -0.2012328625E+01   -0.1795703769E+01    0.2773495913E+01    0.2729575208E-03    0    0
   24    2    9    9    0    0   -0.5423923969E+01   -0.1983478165E+02   -0.2068165207E+02    0.2920366478E+02    0.1511847973E+01    0    0
  211    1   19   19    0    0   -0.1785867214E+01   -0.6126081944E+01   -0.5897359371E+01    0.8690025330E+01    0.1395682842E+00    0    0
  211    1   19   19    0    0   -0.5185643435E+00   -0.2686751127E+01   -0.2643789053E+01    0.3807445526E+01    0.1395680308E+00    0    0
 -211    1   19   19    0    0   -0.1480429411E+01   -0.5158496380E+01   -0.5745792389E+01    0.7863547325E+01    0.1395679116E+00    0    0
  111    1   19   19    0    0   -0.1415720344E+01   -0.4538597584E+01   -0.5042362690E+01    0.6931578636E+01    0.1349639595E+00    0    0
  111    1   19   19    0    0   -0.2233434618E+00   -0.1324856043E+01   -0.1352352858E+01    0.1911072969E+01    0.1349639595E+00    0    0
</event>
<event>
   21 9999    1    0.9119999695E+02    0.7565275169E-02    0.1185000000E+00
   11   -1    0    0    0    0    0.0000000000E+00    0.0000000000E+00    0.8000000000E+02    0.8000000000E+02    0.5109988851E-03    0    0
  -11   -1    0    0    0    0    0.0000000000E+00    0.0000000000E+00   -0.8000000000E+02    0.8000000000E+02    0.5109988851E-03    0    0
  -24    2    1    2    0    0   -0.1603863907E+02    0.2048480988E+02   -0.1376443267E+01    0.8377753448E+02    0.7962358856E+02    0    0
   24    2    1    2    0    0    0.1618286324E+02   -0.2066722870E+02   -0.2966094017E+01    0.7184552002E+02    0.6681288147E+02    0    0
   22    1    1    2    0    0   -0.1442256719E+00    0.1824301779E+00    0.4356641293E+01    0.4362843513E+01    0.0000000000E+00    0    0
   22    1    1    2    0    0    0.9527808515E-06   -0.1227597659E-04   -0.1410371251E-01    0.1410371810E-01    0.0000000000E+00    0    0
   15    2    3    3    0    0   -0.3346389389E+02    0.1350298214E+02   -0.3173253441E+02    0.4808611298E+02    0.1777029991E+01    0    0
  -16    1    3    3    0    0    0.1742525482E+02    0.6981827736E+01    0.3035609055E+02    0.3569142151E+02    0.0000000000E+00    0    0
   16    1    4    4    0    0    0.2294416237E+02    0.2004028130E+02   -0.2030822992E+01    0.3053148651E+02    0.0000000000E+00    0    0
  -15    2    4    4    0    0   -0.6761298656E+01   -0.4070750809E+02   -0.9352708459E+00    0.4131402969E+02    0.1777029991E+01    0    0
   16    1    7    7    0    0   -0.5406949997E+01    0.1888627291E+01   -0.4733390331E+01    0.7430141926E+01    0.1726334885E-03    0    0
  -24    2    7    7    0    0   -0.2805826187E+02    0.1161488724E+02   -0.2700039291E+02    0.4065786362E+02    0.1367153764E+01    0    0
 -321    1   12   12    0    0   -0.1424397945E+02    0.6149402618E+01   -0.1396881104E+02    0.2088246727E+02    0.4936670363E+00    0    0
 -211    1   12   12    0    0   -0.9599256516E+01    0.3501808167E+01   -0.8763910294E+01    0.1346231747E+02    0.1395680755E+00    0    0
  211    1   12   12    0    0   -0.4215026379E+01    0.1963676214E+01   -0.4267673016E+01    0.6313080311E+01    0.1395680010E+00    0    0
  -16    1   10   10    0    0   -0.3639074564E+01   -0.1948266029E+02    0.1508125663E+00    0.1982018280E+02    0.2990099892E-03    0    0
   24    2   10   10    0    0   -0.3122490168E+01   -0.2122644997E+02   -0.1086120248E+01    0.2149547195E+02    0.7506695986E+00    0    0
  111    1   17   17    0    0   -0.4866181910E+00   -0.2894023180E+01   -0.9926547855E-01    0.2939427853E+01    0.1349639744E+00    0    0
  111    1   17   17    0    0   -0.2802113593E+00   -0.1950582147E+01   -0.8758816123E-01    0.1977163672E+01    0.1349639744E+00    0    0
  111    1   17   17    0    0   -0.1257442355E+01   -0.8570457458E+01   -0.3497023880E+00    0.8670318604E+01    0.1349639744E+00    0    0
  211    1   17   17    0    0   -0.1098218441E+01   -0.7811388493E+01   -0.5495642424E+00    0.7908563614E+01    0.1395680606E+00    0    0
</event>
<event>
   21 9999    1    0.9119999695E+02    0.7565275169E-02    0.1185000000E+00
   11   -1    0    0    0    0    0.0000000000E+00    0.0000000000E+00    0.8000000000E+02    0.8000000000E+02    0.5109988851E-03    0    0
  -11   -1    0    0    0    0    0.0000000000E+00    0.0000000000E+00   -0.8000000000E+02    0.8000000000E+02    0.5109988851E-03    0    0
  -24    2    1    2    0    0   -0.3408478975E+01    0.3990018129E+01    0.7236125469E+01    0.8047097778E+02    0.7997299194E+02    0    0
   24    2    1    2    0    0    0.3280134439E+01   -0.4029323578E+01   -0.6474666119E+01    0.7875575256E+02    0.7831700134E+02    0    0
   22    1    1    2    0    0    0.1283530891E+00    0.3930680081E-01   -0.7570607662E+00    0.7688696384E+00    0.0000000000E+00    0    0
   22    1    1    2    0    0   -0.8666524991E-05   -0.1169915890E-05   -0.4398499615E-02    0.4398508463E-02    0.0000000000E+00    0    0
   15    2    3    3    0    0   -0.2955587864E+01    0.2483498001E+02    0.3665667343E+02    0.4441149902E+02    0.1777029991E+01    0    0
  -16    1    3    3    0    0   -0.4528911710E+00   -0.2084496307E+02   -0.2942054749E+02    0.3605948257E+02    0.0000000000E+00    0    0
   16    1    4    4    0    0    0.3295423985E+01    0.2209813499E+02    0.2777211189E+02    0.3564376068E+02    0.0000000000E+00    0    0
  -15    2    4    4    0    0   -0.1528959535E-01   -0.2612745857E+02   -0.3424677658E+02    0.4311199188E+02    0.1777029991E+01    0    0
   16    1    7    7    0    0   -0.1240951493E+00    0.2275419086E+00    0.4171730280E+00    0.4911295772E+00    0.8217109280E-04    0    0
  -24    2    7    7    0    0   -0.2831609011E+01    0.2460841560E+02    0.3624094391E+02    0.4392211914E+02    0.1467766643E+01    0    0
  221    1   12   12    0    0   -0.1893146396E+01    0.1484237099E+02    0.2210600090E+02    0.2669937134E+02    0.5487998128E+00    0    0
 -211    1   12   12    0    0   -0.7036905885E+00    0.3770637751E+01    0.5454612255E+01    0.6669719696E+01    0.1395680010E+00    0    0
  111    1   12   12    0    0   -0.2347719371E+00    0.5995407581E+01    0.8680330276E+01    0.1055302715E+02    0.1349637955E+00    0    0
  -16    1   10   10    0    0    0.2121039033E+00   -0.2990849495E+01   -0.3734431982E+01    0.4789170265E+01    0.2441406250E-03    0    0
   24    2   10   10    0    0   -0.2273941040E+00   -0.2313763809E+02   -0.3051369476E+02    0.3832452011E+02    0.1510409594E+01    0    0
  111    1   17   17    0    0   -0.1421912611E+00   -0.4218935490E+01   -0.5363848209E+01    0.6827057838E+01    0.1349640489E+00    0    0
  111    1   17   17    0    0   -0.3361746371E+00   -0.5770247459E+01   -0.7349097252E+01    0.9350733757E+01    0.1349632591E+00    0    0
  111    1   17   17    0    0   -0.1108892262E+00   -0.3924504757E+01   -0.5816095829E+01    0.7018491268E+01    0.1349640638E+00    0    0
  211    1   17   17    0    0    0.3618608415E+00   -0.9223951340E+01   -0.1198465538E+02    0.1512824059E+02    0.1395681649E+00    0    0
</event>
<event>
   17 9999    1    0.9119999695E+02    0.7565275169E-02    0.1185000000E+00
   11   -1    0    0    0    0    0.0000000000E+00    0.0000000000E+00    0.8000000000E+02    0.8000000000E+02    0.5109988851E-03    0    0
  -11   -1    0    0    0    0    0.0000000000E+00    0.0000000000E+00   -0.8000000000E+02    0.8000000000E+02    0.5109988851E-03    0    0
  -24    2    1    2    0    0   -0.8696743965E+01   -0.9791474342E+01    0.2763791084E+02    0.7433666229E+02    0.6775380707E+02    0    0
   24    2    1    2    0    0    0.8696743965E+01    0.9791474342E+01   -0.2763925362E+02    0.8566199493E+02    0.8001589203E+02    0    0
   22    1    1    2    0    0    0.2561013979E-07    0.1168471275E-07    0.1343310461E-02    0.1343310461E-02    0.0000000000E+00    0    0
   15    2    3    3    0    0    0.2777878952E+02   -0.1345116329E+02    0.5181219101E+01    0.3134641647E+02    0.1777029991E+01    0    0
  -16    1    3    3    0    0   -0.3647553253E+02    0.3659689665E+01    0.2245669174E+02    0.4299024200E+02    0.0000000000E+00    0    0
   16    1    4    4    0    0   -0.7020988464E+01    0.2923437119E+02    0.1694743156E+02    0.3451316071E+02    0.0000000000E+00    0    0
  -15    2    4    4    0    0    0.1571773243E+02   -0.1944289589E+02   -0.4458668518E+02    0.5114883804E+02    0.1777029991E+01    0    0
   16    1    6    6    0    0    0.4865512371E+01   -0.2162537098E+01    0.5124453306E+00    0.5349053860E+01    0.0000000000E+00    0    0
  -24    2    6    6    0    0    0.2291437149E+02   -0.1128915596E+02    0.4668977737E+01    0.2599859810E+02    0.1270525455E+01    0    0
 -321    1   11   11    0    0    0.1338453388E+02   -0.6200959206E+01    0.2538624287E+01    0.1497617912E+02    0.4936669767E+00    0    0
  310    1   11   11    0    0    0.9529840469E+01   -0.5088198185E+01    0.2130353928E+01    0.1102241993E+02    0.4977201223E+00    0    0
  -16    1    9    9    0    0    0.5487054825E+01   -0.7271688938E+01   -0.1596194935E+02    0.1837849426E+02    0.0000000000E+00    0    0
   24    2    9    9    0    0    0.1023129559E+02   -0.1217197323E+02   -0.2862648964E+02    0.3277235794E+02    0.1309609056E+01    0    0
  321    1   15   15    0    0    0.5815776348E+01   -0.6941173077E+01   -0.1543153000E+02    0.1789913368E+02    0.4936669767E+00    0    0
  130    1   15   15    0    0    0.4415520668E+01   -0.5230801105E+01   -0.1319496250E+02    0.1487322617E+02    0.4977201521E+00    0    0
</event>
<event>
   18 9999    1    0.9119999695E+02    0.7565275169E-02    0.1185000000E+00
   11   -1    0    0    0    0    0.0000000000E+00    0.0000000000E+00    0.8000000000E+02    0.8000000000E+02    0.5109988851E-03    0    0
  -11   -1    0    0    0    0    0.0000000000E+00    0.0000000000E+00   -0.8000000000E+02    0.8000000000E+02    0.5109988851E-03    0    0
  -24    2    1    2    0    0    0.4421761703E+02    0.1204971409E+02    0.1568303394E+02    0.9349530792E+02    0.7996887970E+02    0    0
   24    2    1    2    0    0   -0.4421767426E+02   -0.1205017090E+02   -0.1484584713E+02    0.6566751099E+02    0.4462525177E+02    0    0
   22    1    1    2    0    0    0.5724465154E-04    0.4565967247E-03   -0.8370928168E+00    0.8370929360E+00    0.0000000000E+00    0    0
   22    1    1    2    0    0   -0.2238522711E-05    0.6238802825E-06   -0.9367799794E-04    0.9370681801E-04    0.0000000000E+00    0    0
   15    2    3    3    0    0    0.3328213501E+02   -0.2682929420E+02    0.2816318130E+02    0.5122337723E+02    0.1777029991E+01    0    0
  -16    1    3    3    0    0    0.1093548107E+02    0.3887900925E+02   -0.1248014641E+02    0.4227193069E+02    0.0000000000E+00    0    0
   16    1    4    4    0    0   -0.1635365486E+02    0.1889583945E+01    0.1515688324E+02    0.2237730217E+02    0.0000000000E+00    0    0
  -15    2    4    4    0    0   -0.2786401939E+02   -0.1393975544E+02   -0.3000272942E+02    0.4329020691E+02    0.1777029991E+01    0    0
   16    1    7    7    0    0    0.1373027802E+02   -0.1105545139E+02    0.1110774136E+02    0.2083567810E+02    0.1726334885E-03    0    0
   13    1    7    7    0    0    0.1483315086E+02   -0.1161615562E+02    0.1330967045E+02    0.2306763840E+02    0.1056593135E+00    0    0
  -14    1    7    7    0    0    0.4720018864E+01   -0.4158742428E+01    0.3746877193E+01    0.7322076321E+01    0.1726334885E-03    0    0
  -16    1   10   10    0    0   -0.1117634201E+02   -0.5120090008E+01   -0.1133504868E+02    0.1672152138E+02    0.3839033598E-03    0    0
   24    2   10   10    0    0   -0.1668877220E+02   -0.8820213318E+01   -0.1866886139E+02    0.2657038689E+02    0.1071364045E+01    0    0
  211    1   15   15    0    0   -0.7508744717E+01   -0.3973013639E+01   -0.8393909454E+01    0.1194333553E+02    0.1395681351E+00    0    0
  111    1   15   15    0    0   -0.8082757950E+01   -0.4284145355E+01   -0.9382266998E+01    0.1310457993E+02    0.1349642575E+00    0    0
   22    1   15   15    0    0   -0.1097270012E+01   -0.5630539656E+00   -0.8926842213E+00    0.1522470474E+01    0.2200653835E-03    0    0
</event>
<event>
   18 9999    1    0.9119999695E+02    0.7565275169E-02    0.1185000000E+00
   11   -1    0    0    0    0    0.0000000000E+00    0.0000000000E+00    0.8000000000E+02    0.8000000000E+02    0.5109988851E-03    0    0
  -11   -1    0    0    0    0    0.0000000000E+00    0.0000000000E+00   -0.8000000000E+02    0.8000000000E+02    0.5109988851E-03    0    0
  -24    2    1    2    0    0    0.3484055328E+02   -0.1135374641E+02   -0.1399047756E+02    0.9021632385E+02    0.8124333954E+02    0    0
   24    2    1    2    0    0   -0.3484055328E+02    0.1135374641E+02    0.1399047756E+02    0.6978367615E+02    0.5771704102E+02    0    0
   15    2    3    3    0    0    0.5742475128E+02   -0.2492285347E+02   -0.1224884129E+02    0.6381177521E+02    0.1777029991E+01    0    0
  -16    1    3    3    0    0   -0.2258419991E+02    0.1356910706E+02   -0.1741636276E+01    0.2640454674E+02    0.0000000000E+00    0    0
   16    1    4    4    0    0   -0.4112819672E+01   -0.2575407505E+01    0.3140332985E+02    0.3177604675E+02    0.0000000000E+00    0    0
  -15    2    4    4    0    0   -0.3072773361E+02    0.1392915344E+02   -0.1741285133E+02    0.3800763321E+02    0.1777029991E+01    0    0
   16    1    5    5    0    0    0.1481644821E+02   -0.6458587646E+01   -0.3163558245E+01    0.1646962547E+02    0.2693294373E-03    0    0
  -24    2    5    5    0    0    0.4261056519E+02   -0.1846524620E+02   -0.9085765839E+01    0.4734466171E+02    0.1529799223E+01    0    0
  130    1   10   10    0    0    0.1341159058E+02   -0.6159775734E+01   -0.2845844269E+01    0.1503862190E+02    0.4977200329E+00    0    0
 -211    1   10   10    0    0    0.6431196690E+01   -0.2825021029E+01   -0.1602871776E+01    0.7206227303E+01    0.1395679265E+00    0    0
  130    1   10   10    0    0    0.2276777840E+02   -0.9480449677E+01   -0.4637049675E+01    0.2509981155E+02    0.4977200329E+00    0    0
  -16    1    8    8    0    0   -0.1067057228E+02    0.4420908451E+01   -0.6285926819E+01    0.1314984417E+02    0.4567452997E-03    0    0
   24    2    8    8    0    0   -0.2005837059E+02    0.9508792877E+01   -0.1112760925E+02    0.2485928345E+02    0.1185289025E+01    0    0
  211    1   15   15    0    0   -0.5487999439E+01    0.2583185911E+01   -0.2808852434E+01    0.6685814857E+01    0.1395679861E+00    0    0
  111    1   15   15    0    0   -0.9934942245E+01    0.4914653778E+01   -0.5290719509E+01    0.1228278637E+02    0.1349642873E+00    0    0
   22    1   15   15    0    0   -0.4635426998E+01    0.2010952711E+01   -0.3028037071E+01    0.5890681267E+01    0.0000000000E+00    0    0
</event>
<event>
   20 9999    1    0.9119999695E+02    0.7565275169E-02    0.1185000000E+00
   11   -1    0    0    0    0    0.0000000000E+00    0.0000000000E+00    0.8000000000E+02    0.8000000000E+02    0.5109988851E-03    0    0
  -11   -1    0    0    0    0    0.0000000000E+00    0.0000000000E+00   -0.8000000000E+02    0.8000000000E+02    0.5109988851E-03    0    0
  -24    2    1    2    0    0    0.1192931843E+02   -0.1774396896E+02   -0.1094436264E+02    0.7353073883E+02    0.6949700165E+02    0    0
   24    2    1    2    0    0   -0.1194286728E+02    0.1772521591E+02    0.1171285248E+02    0.8570042419E+02    0.8216177368E+02    0    0
   22    1    1    2    0    0    0.1354891621E-01    0.1875323988E-01   -0.7684891820E+00    0.7688373327E+00    0.0000000000E+00    0    0
   15    2    3    3    0    0    0.5985328674E+01    0.1125879955E+02    0.2430132484E+02    0.2750085258E+02    0.1777029991E+01    0    0
  -16    1    3    3    0    0    0.5943989277E+01   -0.2900276947E+02   -0.3524568939E+02    0.4602988434E+02    0.0000000000E+00    0    0
   16    1    4    4    0    0    0.2479772377E+02   -0.2355529785E+01    0.3083233452E+02    0.3963721085E+02    0.0000000000E+00    0    0
  -15    2    4    4    0    0   -0.3674058914E+02    0.2008074570E+02   -0.1911948204E+02    0.4606321716E+02    0.1777029991E+01    0    0
   16    1    6    6    0    0    0.1763059646E+00    0.1400495917E+00    0.6196522713E+00    0.6592925191E+00    0.4315837214E-04    0    0
  -24    2    6    6    0    0    0.5809257984E+01    0.1111919308E+02    0.2368262863E+02    0.2684264183E+02    0.1508859396E+01    0    0
 -211    1   11   11    0    0    0.1652875692E+00    0.6302696466E+00    0.1388380051E+01    0.1540012360E+01    0.1395679116E+00    0    0
 -211    1   11   11    0    0    0.1851024389E+01    0.4113401890E+01    0.8132648468E+01    0.9300849915E+01    0.1395677924E+00    0    0
 -211    1   11   11    0    0    0.9855542779E+00    0.1981612802E+01    0.4025859356E+01    0.4596208096E+01    0.1395679712E+00    0    0
  211    1   11   11    0    0    0.1227813840E+01    0.1996827245E+01    0.4251042843E+01    0.4856510162E+01    0.1395679861E+00    0    0
  211    1   11   11    0    0    0.1579577804E+01    0.2397081137E+01    0.5884697437E+01    0.6549061298E+01    0.1395678222E+00    0    0
  -16    1    9    9    0    0   -0.1210983849E+02    0.7136907578E+01   -0.6945603371E+01    0.1567880917E+02    0.1726334885E-03    0    0
  323    2    9    9    0    0   -0.2463219833E+02    0.1294462967E+02   -0.1217463207E+02    0.3038622093E+02    0.8899888396E+00    0    0
  211    1   18   18    0    0   -0.7640579224E+01    0.3783858061E+01   -0.3520107269E+01    0.9225327492E+01    0.1395680159E+00    0    0
  130    1   18   18    0    0   -0.1699161911E+02    0.9160771370E+01   -0.8654524803E+01    0.2116089249E+02    0.4977200031E+00    0    0
</event>
<event>
   18 9999    1    0.9119999695E+02    0.7565275169E-02    0.1185000000E+00
   11   -1    0    0    0    0    0.0000000000E+00    0.0000000000E+00    0.8000000000E+02    0.8000000000E+02    0.5109988851E-03    0    0
  -11   -1    0    0    0    0    0.0000000000E+00    0.0000000000E+00   -0.8000000000E+02    0.8000000000E+02    0.5109988851E-03    0    0
  -24    2    1    2    0    0   -0.1484831333E+02   -0.2601692772E+02    0.1614670944E+02    0.7289268494E+02    0.6446141815E+02    0    0
   24    2    1    2    0    0    0.1484831333E+02    0.2601692772E+02   -0.1614670944E+02    0.8710731506E+02    0.8018487549E+02    0    0
   15    2    3    3    0    0   -0.1618854713E+02   -0.4598775101E+02    0.2863309622E+01    0.4887022400E+02    0.1777029991E+01    0    0
  -16    1    3    3    0    0    0.1340233207E+01    0.1997082520E+02    0.1328339958E+02    0.2402246284E+02    0.0000000000E+00    0    0
   16    1    4    4    0    0   -0.1132072926E+01    0.2682150459E+02    0.2879576492E+02    0.3936839676E+02    0.0000000000E+00    0    0
  -15    2    4    4    0    0    0.1598038673E+02   -0.8045765162E+00   -0.4494247437E+02    0.4773891449E+02    0.1777029991E+01    0    0
   16    1    5    5    0    0   -0.6499995708E+01   -0.1840282822E+02    0.1671704650E+01    0.1958848190E+02    0.2441406250E-03    0    0
  -24    2    5    5    0    0   -0.9689188004E+01   -0.2758673668E+02    0.1191717744E+01    0.2928366661E+02    0.1097543001E+01    0    0
  111    1   10   10    0    0   -0.2635781527E+01   -0.7427555561E+01    0.4701374471E+00    0.7896528721E+01    0.1349635422E+00    0    0
  111    1   10   10    0    0   -0.2197528839E+01   -0.6859381199E+01    0.4329418838E+00    0.7217056274E+01    0.1349639446E+00    0    0
 -321    1   10   10    0    0   -0.4855879307E+01   -0.1329980278E+02    0.2886387706E+00    0.1417008591E+02    0.4936670065E+00    0    0
  -16    1    8    8    0    0    0.8962894678E+00    0.1966338903E+00   -0.2775580406E+01    0.2923328161E+01    0.4485149693E-03    0    0
   24    2    8    8    0    0    0.1508472538E+02   -0.1001242042E+01   -0.4216865921E+02    0.4481746292E+02    0.1362944603E+01    0    0
  221    1   15   15    0    0    0.5652350426E+01   -0.3435771167E+00   -0.1517379856E+02    0.1620532227E+02    0.5487998128E+00    0    0
  211    1   15   15    0    0    0.8873072624E+01   -0.7077350020E+00   -0.2515912437E+02    0.2668770027E+02    0.1395679712E+00    0    0
  111    1   15   15    0    0    0.5593053102E+00    0.5006987602E-01   -0.1835745811E+01    0.1924449921E+01    0.1349639744E+00    0    0
</event>
<event>
   18 9999    1    0.9119999695E+02    0.7565275169E-02    0.1185000000E+00
   11   -1    0    0    0    0    0.0000000000E+00    0.0000000000E+00    0.8000000000E+02    0.8000000000E+02    0.5109988851E-03    0    0
  -11   -1    0    0    0    0    0.0000000000E+00    0.0000000000E+00   -0.8000000000E+02    0.8000000000E+02    0.5109988851E-03    0    0
  -24    2    1    2    0    0    0.1251689148E+02    0.1188237286E+02    0.4752546692E+02    0.6353159332E+02    0.3846725464E+02    0    0
   24    2    1    2    0    0   -0.1251689148E+02   -0.1188237286E+02   -0.4752546692E+02    0.9646840668E+02    0.8215607452E+02    0    0
   15    2    3    3    0    0    0.2321085739E+02   -0.3204333305E+01    0.2940892792E+02    0.3764378357E+02    0.1777029991E+01    0    0
  -16    1    3    3    0    0   -0.1069396496E+02    0.1508670616E+02    0.1811653900E+02    0.2588780785E+02    0.0000000000E+00    0    0
   16    1    4    4    0    0    0.3499739456E+02   -0.8613888741E+01   -0.1681688881E+02    0.3977215576E+02    0.0000000000E+00    0    0
  -15    2    4    4    0    0   -0.4751428604E+02   -0.3268483877E+01   -0.3070857811E+02    0.5669625092E+02    0.1777029991E+01    0    0
   16    1    5    5    0    0    0.6347602844E+01   -0.9568848610E+00    0.8423113823E+01    0.1059039879E+02    0.4002342757E-03    0    0
  -24    2    5    5    0    0    0.1686416817E+02   -0.2247574568E+01    0.2098697090E+02    0.2705486679E+02    0.1435670257E+01    0    0
  310    1   10   10    0    0    0.7151343822E+01   -0.1090653419E+01    0.9107117653E+01    0.1164124393E+02    0.4977201521E+00    0    0
 -211    1   10   10    0    0    0.6103263855E+01   -0.8303458691E+00    0.7325416565E+01    0.9571860313E+01    0.1395680755E+00    0    0
  130    1   10   10    0    0    0.3609557390E+01   -0.3265748322E+00    0.4554433823E+01    0.5841759205E+01    0.4977199733E+00    0    0
  -16    1    8    8    0    0   -0.1702577591E+02   -0.1187843800E+01   -0.1088359261E+02    0.2024205017E+02    0.3636589099E-03    0    0
   24    2    8    8    0    0   -0.3049037743E+02   -0.2080768585E+01   -0.1982619476E+02    0.3645643234E+02    0.1414438605E+01    0    0
  211    1   15   15    0    0   -0.1325006723E+01   -0.3054434955E+00   -0.8362763524E+00    0.1602428198E+01    0.1395678669E+00    0    0
  310    1   15   15    0    0   -0.2099093246E+02   -0.1249236703E+01   -0.1365301323E+02    0.2507652855E+02    0.4977200925E+00    0    0
  111    1   15   15    0    0   -0.8174439430E+01   -0.5260884166E+00   -0.5336905003E+01    0.9777474403E+01    0.1349639297E+00    0    0
</event>
<event>
   19 9999    1    0.9119999695E+02    0.7565275169E-02    0.1185000000E+00
   11   -1    0    0    0    0    0.0000000000E+00    0.0000000000E+00    0.8000000000E+02    0.8000000000E+02    0.5109988851E-03    0    0
  -11   -1    0    0    0    0    0.0000000000E+00    0.0000000000E+00   -0.8000000000E+02    0.8000000000E+02    0.5109988851E-03    0    0
  -24    2    1    2    0    0    0.9929769516E+01    0.1153409863E+02   -0.1713651657E+02    0.7629796600E+02    0.7277420044E+02    0    0
   24    2    1    2    0    0   -0.9929878235E+01   -0.1153604984E+02    0.1715292549E+02    0.8368544769E+02    0.8048197937E+02    0    0
   22    1    1    2    0    0   -0.2260790934E-03    0.5492314231E-03   -0.8922982961E-02    0.8942727931E-02    0.0000000000E+00    0    0
   22    1    1    2    0    0    0.3348602622E-03    0.1402116497E-02   -0.6677902304E-02    0.6831723265E-02    0.0000000000E+00    0    0
   22    1    1    2    0    0   -0.1573584463E-07   -0.3689853978E-08   -0.8077751845E-03    0.8077751845E-03    0.0000000000E+00    0    0
   15    2    3    3    0    0   -0.1018410492E+02    0.3802490997E+02   -0.1730115509E+02    0.4303600311E+02    0.1777029991E+01    0    0
  -16    1    3    3    0    0    0.2011387444E+02   -0.2649081230E+02    0.1646382362E+00    0.3326196289E+02    0.0000000000E+00    0    0
   16    1    4    4    0    0   -0.4291073227E+02   -0.2067109871E+02    0.9333797455E+01    0.4853601837E+02    0.0000000000E+00    0    0
  -15    2    4    4    0    0    0.3298085403E+02    0.9135048866E+01    0.7819128036E+01    0.3514942932E+02    0.1777029991E+01    0    0
   16    1    8    8    0    0   -0.2081660509E+01    0.9186466217E+01   -0.4040366173E+01    0.1024934292E+02    0.4145226267E-03    0    0
  -24    2    8    8    0    0   -0.8102845192E+01    0.2883994293E+02   -0.1326147079E+02    0.3278835678E+02    0.1345854163E+01    0    0
 -211    1   13   13    0    0   -0.3906897068E+01    0.1378507042E+02   -0.6766457081E+01    0.1584602261E+02    0.1395682245E+00    0    0
  111    1   13   13    0    0   -0.2390913248E+01    0.9587012291E+01   -0.4368236542E+01    0.1080402565E+02    0.1349641085E+00    0    0
   22    1   13   13    0    0   -0.1805035233E+01    0.5467860699E+01   -0.2126776934E+01    0.6138308525E+01    0.2114319796E-03    0    0
  -16    1   11   11    0    0    0.2536032915E+01    0.1034243107E+01    0.7883093953E+00    0.2850009441E+01    0.2024307178E-03    0    0
  -11    1   11   11    0    0    0.3041221046E+02    0.8097922325E+01    0.7062407494E+01    0.3225455856E+02    0.4557246284E-03    0    0
   12    1   11   11    0    0    0.3391173482E-01    0.3243296407E-02   -0.3128074482E-01    0.4624965414E-01    0.1360515889E-03    0    0
</event>
<event>
   18 9999    1    0.9119999695E+02    0.7565275169E-02    0.1185000000E+00
   11   -1    0    0    0    0    0.0000000000E+00    0.0000000000E+00    0.8000000000E+02    0.8000000000E+02    0.5109988851E-03    0    0
  -11   -1    0    0    0    0    0.0000000000E+00    0.0000000000E+00   -0.8000000000E+02    0.8000000000E+02    0.5109988851E-03    0    0
  -24    2    1    2    0    0   -0.2526868629E+02   -0.1654137802E+02    0.3343140793E+02    0.7765676117E+02    0.6325179672E+02    0    0
   24    2    1    2    0    0    0.2526868629E+02    0.1654137802E+02   -0.3343208313E+02    0.8234256744E+02    0.6892365265E+02    0    0
   22    1    1    2    0    0    0.1511750270E-05   -0.9354115491E-06    0.6759666139E-03    0.6759689422E-03    0.0000000000E+00    0    0
   15    2    3    3    0    0   -0.3760597229E+02   -0.3156489182E+02    0.2555641747E+02    0.5537905884E+02    0.1777029991E+01    0    0
  -16    1    3    3    0    0    0.1290266609E+02    0.1544740009E+02    0.7511861324E+01    0.2148322487E+02    0.0000000000E+00    0    0
   22    1    3    3    0    0   -0.5653788447E+00   -0.4238856733E+00    0.3631286323E+00    0.7944776416E+00    0.0000000000E+00    0    0
   16    1    4    4    0    0   -0.1663565826E+02    0.1633939362E+02   -0.3298871994E+02    0.4039772797E+02    0.0000000000E+00    0    0
  -15    2    4    4    0    0    0.4190434265E+02    0.2019854784E+00   -0.4433633983E+00    0.4194483566E+02    0.1777029991E+01    0    0
   16    1    6    6    0    0   -0.9656395912E+01   -0.7959825516E+01    0.6770588875E+01    0.1422834015E+02    0.6103515625E-04    0    0
  -24    2    6    6    0    0   -0.2795104027E+02   -0.2360629463E+02    0.1878682327E+02    0.4115287018E+02    0.1447846413E+01    0    0
 -321    1   12   12    0    0   -0.1477498627E+02   -0.1221669960E+02    0.1039061356E+02    0.2181184387E+02    0.4936670065E+00    0    0
  310    1   12   12    0    0   -0.1317606163E+02   -0.1138959980E+02    0.8396214485E+01    0.1934103584E+02    0.4977200627E+00    0    0
  -16    1   10   10    0    0    0.3579942703E+02   -0.5101717636E-01    0.3972332925E-01    0.3579948425E+02    0.1220703125E-03    0    0
  213    2   10   10    0    0    0.6106564999E+01    0.2530106008E+00   -0.4831041694E+00    0.6146999836E+01    0.4450494647E+00    0    0
  211    1   16   16    0    0    0.4139484406E+01    0.1152106151E+00   -0.1796964258E+00    0.4147333622E+01    0.1395679861E+00    0    0
  111    1   16   16    0    0    0.1967078924E+01    0.1377999783E+00   -0.3034076989E+00    0.1999664903E+01    0.1349635124E+00    0    0
</event>
<event>
   19 9999    1    0.9119999695E+02    0.7565275169E-02    0.1185000000E+00
   11   -1    0    0    0    0    0.0000000000E+00    0.0000000000E+00    0.8000000000E+02    0.8000000000E+02    0.5109988851E-03    0    0
  -11   -1    0    0    0    0    0.0000000000E+00    0.0000000000E+00   -0.8000000000E+02    0.8000000000E+02    0.5109988851E-03    0    0
  -24    2    1    2    0    0    0.1307710171E+01   -0.1727555656E+02    0.1995142746E+02    0.7732089996E+02    0.7266571808E+02    0    0
   24    2    1    2    0    0   -0.1307710171E+01    0.1727555656E+02   -0.1995142746E+02    0.8267910004E+02    0.7834296417E+02    0    0
   15    2    3    3    0    0    0.1112866402E+02   -0.4060848618E+02    0.2571400833E+02    0.4936866379E+02    0.1777029991E+01    0    0
  -16    1    3    3    0    0   -0.1009656239E+02    0.2422686958E+02   -0.6120340347E+01    0.2695070076E+02    0.0000000000E+00    0    0
   22    1    3    3    0    0    0.2756077647E+00   -0.8939389586E+00    0.3577596247E+00    0.1001538038E+01    0.0000000000E+00    0    0
   16    1    4    4    0    0   -0.3957142639E+02    0.4355720043E+01   -0.9812813759E+01    0.4100196838E+02    0.0000000000E+00    0    0
  -15    2    4    4    0    0    0.3826371765E+02    0.1291983604E+02   -0.1013861465E+02    0.4167713547E+02    0.1777029991E+01    0    0
   16    1    5    5    0    0    0.3352850676E+01   -0.1104929638E+02    0.6934854031E+01    0.1346925354E+02    0.1431401324E-03    0    0
  -24    2    5    5    0    0    0.7776262760E+01   -0.2956083107E+02    0.1878019142E+02    0.3590140152E+02    0.1379094243E+01    0    0
 -211    1   11   11    0    0    0.4542907178E+00   -0.2299299955E+01    0.1542513132E+01    0.2809268236E+01    0.1395678669E+00    0    0
 -211    1   11   11    0    0    0.4498371601E+01   -0.1624294853E+02    0.1053287220E+02    0.1987535286E+02    0.1395680457E+00    0    0
  211    1   11   11    0    0    0.1616269588E+01   -0.5936653614E+01    0.3480240107E+01    0.7070201397E+01    0.1395679563E+00    0    0
  111    1   11   11    0    0    0.8242540956E+00   -0.3253245354E+01    0.2017014980E+01    0.3917852402E+01    0.1349640042E+00    0    0
  111    1   11   11    0    0    0.3830772042E+00   -0.1828684330E+01    0.1207551956E+01    0.2228728771E+01    0.1349641532E+00    0    0
  -16    1    9    9    0    0    0.2664346504E+02    0.8896350861E+01   -0.6619827747E+01    0.2885899162E+02    0.1726334885E-03    0    0
  -11    1    9    9    0    0    0.7767457485E+01    0.2858397245E+01   -0.2739535570E+01    0.8718307495E+01    0.4567452997E-03    0    0
   12    1    9    9    0    0    0.3854300499E+01    0.1165596724E+01   -0.7796500921E+00    0.4101475716E+01    0.6103515625E-04    0    0
</event>
<event>
   18 9999    1    0.9119999695E+02    0.7565275169E-02    0.1185000000E+00
   11   -1    0    0    0    0    0.0000000000E+00    0.0000000000E+00    0.8000000000E+02    0.8000000000E+02    0.5109988851E-03    0    0
  -11   -1    0    0    0    0    0.0000000000E+00    0.0000000000E+00   -0.8000000000E+02    0.8000000000E+02    0.5109988851E-03    0    0
  -24    2    1    2    0    0    0.1285122871E+02   -0.2913223267E+01    0.2354439545E+02    0.8218353271E+02    0.7762830353E+02    0    0
   24    2    1    2    0    0   -0.1285134315E+02    0.2913170815E+01   -0.2412694931E+02    0.7723391724E+02    0.7217565155E+02    0    0
   22    1    1    2    0    0    0.1023508230E-03    0.6008629862E-04    0.5791181922E+00    0.5791181922E+00    0.0000000000E+00    0    0
   22    1    1    2    0    0    0.1140519544E-04   -0.7665756129E-05    0.3434005659E-02    0.3434033133E-02    0.0000000000E+00    0    0
   15    2    3    3    0    0    0.2947415161E+02   -0.3021392059E+02    0.2683899117E+02    0.5005093384E+02    0.1777029991E+01    0    0
  -16    1    3    3    0    0   -0.1662292099E+02    0.2730069733E+02   -0.3294595003E+01    0.3213259888E+02    0.0000000000E+00    0    0
   16    1    4    4    0    0    0.3987916231E+01    0.5726845264E+00    0.2494588661E+02    0.2526912498E+02    0.0000000000E+00    0    0
  -15    2    4    4    0    0   -0.1683925819E+02    0.2340486288E+01   -0.4907283401E+02    0.5196479034E+02    0.1777029991E+01    0    0
   16    1    7    7    0    0    0.7557641029E+01   -0.8059062004E+01    0.7054108143E+01    0.1310827446E+02    0.5688121892E-03    0    0
  -24    2    7    7    0    0    0.2191766930E+02   -0.2215604591E+02    0.1978593826E+02    0.3694462585E+02    0.1465412378E+01    0    0
  221    1   12   12    0    0    0.7875683308E+01   -0.8332312584E+01    0.7005886078E+01    0.1344758129E+02    0.5488000512E+00    0    0
 -211    1   12   12    0    0    0.1053151512E+02   -0.9987563133E+01    0.9310352325E+01    0.1724431419E+02    0.1395679414E+00    0    0
  111    1   12   12    0    0    0.3510471344E+01   -0.3836171389E+01    0.3469700575E+01    0.6252731800E+01    0.1349640340E+00    0    0
  -16    1   10   10    0    0   -0.1290273762E+02    0.1764832616E+01   -0.3785233307E+02    0.4002991867E+02    0.2571456716E-03    0    0
  -11    1   10   10    0    0   -0.3179770231E+01    0.5608764887E+00   -0.9895524979E+01    0.1040898323E+02    0.5106567405E-03    0    0
   12    1   10   10    0    0   -0.7574139833E+00    0.1486928947E-01   -0.1326910853E+01    0.1527936339E+01    0.1726334885E-03    0    0
</event>
<event>
   19 9999    1    0.9119999695E+02    0.7565275169E-02    0.1185000000E+00
   11   -1    0    0    0    0    0.0000000000E+00    0.0000000000E+00    0.8000000000E+02    0.8000000000E+02    0.5109988851E-03    0    0
  -11   -1    0    0    0    0    0.0000000000E+00    0.0000000000E+00   -0.8000000000E+02    0.8000000000E+02    0.5109988851E-03    0    0
  -24    2    1    2    0    0    0.1989076614E+01   -0.2604059601E+02    0.2377656937E+02    0.8776144409E+02    0.8034100342E+02    0    0
   24    2    1    2    0    0   -0.2001745701E+01    0.2604188728E+02   -0.2184329605E+02    0.7030515289E+02    0.6151014328E+02    0    0
   22    1    1    2    0    0   -0.1108787037E-03   -0.2375871845E-03   -0.1308707595E+01    0.1308707714E+01    0.0000000000E+00    0    0
   22    1    1    2    0    0    0.1277984492E-01   -0.1052661100E-02   -0.6245664358E+00    0.6246980429E+00    0.0000000000E+00    0    0
   15    2    3    3    0    0    0.2209537697E+02   -0.4439860535E+02    0.3232539749E+02    0.5922441101E+02    0.1777029991E+01    0    0
  -16    1    3    3    0    0   -0.2010630035E+02    0.1835800934E+02   -0.8548826218E+01    0.2853703308E+02    0.0000000000E+00    0    0
   16    1    4    4    0    0    0.1379608822E+02   -0.1437046146E+02    0.3197725296E+01    0.2017591667E+02    0.0000000000E+00    0    0
  -15    2    4    4    0    0   -0.1579783344E+02    0.4041234970E+02   -0.2504102135E+02    0.5012923431E+02    0.1777029991E+01    0    0
   16    1    7    7    0    0    0.7929986119E+00   -0.1994969606E+01    0.1431153536E+01    0.2580106735E+01    0.2673555864E-03    0    0
  -24    2    7    7    0    0    0.2130324936E+02   -0.4240538406E+02    0.3089551544E+02    0.5664663696E+02    0.1504523158E+01    0    0
  130    1   12   12    0    0    0.1120171833E+02   -0.2180716705E+02    0.1610596657E+02    0.2933736420E+02    0.4977200329E+00    0    0
 -211    1   12   12    0    0    0.6815280914E+00   -0.1185823560E+01    0.8662406206E+00    0.1624964595E+01    0.1395679712E+00    0    0
  130    1   12   12    0    0    0.9420001030E+01   -0.1941239166E+02    0.1392330551E+02    0.2568430519E+02    0.4977200031E+00    0    0
  -16    1   10   10    0    0   -0.1030401707E+02    0.2499028397E+02   -0.1541270924E+02    0.3111653328E+02    0.2200653835E-03    0    0
  323    2   10   10    0    0   -0.5494438171E+01    0.1542365456E+02   -0.9629296303E+01    0.1901467133E+02    0.8697230220E+00    0    0
  111    1   17   17    0    0   -0.2358701468E+01    0.7351187706E+01   -0.4461413383E+01    0.8917727470E+01    0.1349639744E+00    0    0
  321    1   17   17    0    0   -0.3135736704E+01    0.8072466850E+01   -0.5167882919E+01    0.1009694481E+02    0.4936669767E+00    0    0
</event>
<event>
   20 9999    1    0.9119999695E+02    0.7565275169E-02    0.1185000000E+00
   11   -1    0    0    0    0    0.0000000000E+00    0.0000000000E+00    0.8000000000E+02    0.8000000000E+02    0.5109988851E-03    0    0
  -11   -1    0    0    0    0    0.0000000000E+00    0.0000000000E+00   -0.8000000000E+02    0.8000000000E+02    0.5109988851E-03    0    0
  -24    2    1    2    0    0    0.9603385925E+01    0.1465289116E+01    0.2525468111E+01    0.8125819397E+02    0.8063587952E+02    0    0
   24    2    1    2    0    0   -0.9593848228E+01   -0.1449737191E+01   -0.2436086655E+01    0.7864707184E+02    0.7800822449E+02    0    0
   22    1    1    2    0    0    0.1641813697E-05    0.3725594695E-06   -0.6095865369E-01    0.6095865369E-01    0.0000000000E+00    0    0
   22    1    1    2    0    0   -0.9538909420E-02   -0.1555231959E-01   -0.2842267789E-01    0.3377445787E-01    0.0000000000E+00    0    0
   15    2    3    3    0    0    0.7229001522E+01    0.2176747513E+02    0.3559453964E+02    0.4238172531E+02    0.1777029991E+01    0    0
  -16    1    3    3    0    0    0.2374384165E+01   -0.2030218697E+02   -0.3306907272E+02    0.3887647247E+02    0.0000000000E+00    0    0
   16    1    4    4    0    0   -0.4375205231E+02   -0.3562594414E+01   -0.5503311634E+01    0.4424048615E+02    0.0000000000E+00    0    0
  -15    2    4    4    0    0    0.3415820694E+02    0.2112857342E+01    0.3067224741E+01    0.3440658188E+02    0.1777029991E+01    0    0
   16    1    7    7    0    0    0.8758200407E+00    0.2481772423E+01    0.3558985710E+01    0.4426356792E+01    0.5980199785E-03    0    0
  -24    2    7    7    0    0    0.6353465557E+01    0.1928656006E+02    0.3203695679E+02    0.3795703506E+02    0.1425530434E+01    0    0
  111    1   12   12    0    0    0.6174472570E+00    0.2112765312E+01    0.3176698923E+01    0.3867124319E+01    0.1349641681E+00    0    0
  111    1   12   12    0    0    0.6420968175E+00    0.1684514642E+01    0.2388812780E+01    0.2995750427E+01    0.1349634379E+00    0    0
 -321    1   12   12    0    0    0.5093921185E+01    0.1548927879E+02    0.2647144127E+02    0.3109416008E+02    0.4936670661E+00    0    0
  -16    1   10   10    0    0    0.1071721458E+02    0.8897584081E+00    0.8427318931E+00    0.1078705502E+02    0.4834893625E-03    0    0
   24    2   10   10    0    0    0.2344233513E+02    0.1223181963E+01    0.2224613667E+01    0.2362088013E+02    0.1399233103E+01    0    0
  130    1   17   17    0    0    0.8848002434E+01    0.3141546845E+00    0.1061640620E+01    0.8930881500E+01    0.4977199733E+00    0    0
  211    1   17   17    0    0    0.5826946735E+01    0.5134208202E+00    0.5922129750E+00    0.5881080151E+01    0.1395680606E+00    0    0
  310    1   17   17    0    0    0.8767382622E+01    0.3956063986E+00    0.5707598329E+00    0.8808916092E+01    0.4977200031E+00    0    0
</event>
<event>
   19 9999    1    0.9119999695E+02    0.7565275169E-02    0.1185000000E+00
   11   -1    0    0    0    0    0.0000000000E+00    0.0000000000E+00    0.8000000000E+02    0.8000000000E+02    0.5109988851E-03    0    0
  -11   -1    0    0    0    0    0.0000000000E+00    0.0000000000E+00   -0.8000000000E+02    0.8000000000E+02    0.5109988851E-03    0    0
  -24    2    1    2    0    0    0.1260265350E+02    0.1937104017E+00   -0.8578777313E+00    0.7923944092E+02    0.7822588348E+02    0    0
   24    2    1    2    0    0   -0.1260265350E+02   -0.1937104017E+00    0.8578777313E+00    0.8076055908E+02    0.7976632690E+02    0    0
   15    2    3    3    0    0    0.1174669385E+01    0.3112929916E+02    0.1047716045E+02    0.3291415787E+02    0.1777029991E+01    0    0
  -16    1    3    3    0    0    0.1103838444E+02   -0.3655686569E+02   -0.1317781734E+02    0.4039684677E+02    0.0000000000E+00    0    0
   22    1    3    3    0    0    0.3895996213E+00    0.5621275425E+01    0.1842779398E+01    0.5928436756E+01    0.0000000000E+00    0    0
   16    1    4    4    0    0   -0.4439466095E+02    0.1303590679E+02   -0.1088488568E-01    0.4626900482E+02    0.0000000000E+00    0    0
  -15    2    4    4    0    0    0.3179200745E+02   -0.1322961712E+02    0.8687626123E+00    0.3449155045E+02    0.1777029991E+01    0    0
   16    1    5    5    0    0    0.5076229572E+00    0.2862289190E+01    0.1173239827E+01    0.3134783983E+01    0.2589502255E-03    0    0
 -323    2    5    5    0    0    0.6670917869E+00    0.2826820946E+02    0.9304324150E+01    0.2978064156E+02    0.8829247952E+00    0    0
 -211    1   11   11    0    0   -0.9528117627E-01    0.7207618713E+01    0.2370337963E+01    0.7589256287E+01    0.1395678818E+00    0    0
  310    1   11   11    0    0    0.7623729706E+00    0.2106059265E+02    0.6933986187E+01    0.2219138527E+02    0.4977200031E+00    0    0
  -16    1    9    9    0    0    0.2812216282E+01   -0.1449016690E+01   -0.9515134990E-01    0.3165006161E+01    0.4250606871E-03    0    0
   24    2    9    9    0    0    0.2898104286E+02   -0.1178112030E+02    0.9639481902E+00    0.3132790184E+02    0.1346342206E+01    0    0
  211    1   15   15    0    0    0.3100952148E+01   -0.1569152713E+01    0.1975784004E+00    0.3483771086E+01    0.1395679116E+00    0    0
  111    1   15   15    0    0    0.1796132851E+02   -0.7088359833E+01    0.1738557816E+00    0.1931068420E+02    0.1349640936E+00    0    0
   22    1   15   15    0    0    0.7827768326E+01   -0.3089194298E+01    0.5784004927E+00    0.8435141563E+01    0.1220703125E-03    0    0
   22    1   15   15    0    0    0.9096837044E-01   -0.3440257534E-01    0.1411301456E-01    0.9827491641E-01    0.0000000000E+00    0    0
</event>
<event>
   18 9999    1    0.9119999695E+02    0.7565275169E-02    0.1185000000E+00
   11   -1    0    0    0    0    0.0000000000E+00    0.0000000000E+00    0.8000000000E+02    0.8000000000E+02    0.5109988851E-03    0    0
  -11   -1    0    0    0    0    0.0000000000E+00    0.0000000000E+00   -0.8000000000E+02    0.8000000000E+02    0.5109988851E-03    0    0
  -24    2    1    2    0    0    0.1053913403E+02    0.8424016953E+01    0.7741842747E+01    0.7866063690E+02    0.7710721588E+02    0    0
   24    2    1    2    0    0   -0.1053913403E+02   -0.8424016953E+01   -0.7741842270E+01    0.8133936310E+02    0.7983807373E+02    0    0
   15    2    3    3    0    0    0.3251107788E+02    0.3125271988E+02   -0.2931187868E+01    0.4522667694E+02    0.1777029991E+01    0    0
  -16    1    3    3    0    0   -0.2197194481E+02   -0.2282870293E+02    0.1067303085E+02    0.3343395996E+02    0.0000000000E+00    0    0
   16    1    4    4    0    0    0.2289809418E+02   -0.1218920326E+02    0.2378547478E+02    0.3519443512E+02    0.0000000000E+00    0    0
  -15    2    4    4    0    0   -0.3343722916E+02    0.3765186548E+01   -0.3152731705E+02    0.4614492798E+02    0.1777029991E+01    0    0
   16    1    5    5    0    0    0.4584118843E+01    0.4896894455E+01   -0.4057436883E+00    0.6719995975E+01    0.1087021374E-03    0    0
  -24    2    5    5    0    0    0.2792823982E+02    0.2635705566E+02   -0.2525559664E+01    0.3850846481E+02    0.1357306004E+01    0    0
 -211    1   10   10    0    0    0.1052126050E+01    0.9014279842E+00   -0.6801787019E-01    0.1394147515E+01    0.1395685673E+00    0    0
 -211    1   10   10    0    0    0.4128662109E+01    0.3596060038E+01   -0.3460774422E+00    0.5487872601E+01    0.1395679563E+00    0    0
  211    1   10   10    0    0    0.1012369251E+02    0.9551070213E+01   -0.9212981462E+00    0.1394920635E+02    0.1395679712E+00    0    0
  111    1   10   10    0    0    0.3236473799E+01    0.3254970789E+01   -0.1788434982E+00    0.4595627785E+01    0.1349640340E+00    0    0
  111    1   10   10    0    0    0.9387287140E+01    0.9053528786E+01   -0.1011322737E+01    0.1308161068E+02    0.1349638849E+00    0    0
  -16    1    8    8    0    0   -0.2483282852E+02    0.3120628357E+01   -0.2365876007E+02    0.3444044876E+02    0.1671516657E-03    0    0
  -13    1    8    8    0    0   -0.5545129776E+01    0.2723351717E+00   -0.5520769596E+01    0.7830242157E+01    0.1056589633E+00    0    0
   14    1    8    8    0    0   -0.3060585737E+01    0.3723711371E+00   -0.2349028826E+01    0.3876052380E+01    0.1726334885E-03    0    0
</event>
<event>
   17 9999    1    0.9119999695E+02    0.7565275169E-02    0.1185000000E+00
   11   -1    0    0    0    0    0.0000000000E+00    0.0000000000E+00    0.8000000000E+02    0.8000000000E+02    0.5109988851E-03    0    0
  -11   -1    0    0    0    0    0.0000000000E+00    0.0000000000E+00   -0.8000000000E+02    0.8000000000E+02    0.5109988851E-03    0    0
  -24    2    1    2    0    0   -0.2310927868E+01   -0.1325003624E+02    0.1577886939E+01    0.7786281586E+02    0.7667610168E+02    0    0
   24    2    1    2    0    0    0.2311035872E+01    0.1324985600E+02   -0.1264937997E+01    0.8182423401E+02    0.8070133972E+02    0    0
   22    1    1    2    0    0   -0.1080160000E-03    0.1801698963E-03   -0.3129488528E+00    0.3129489124E+00    0.0000000000E+00    0    0
   15    2    3    3    0    0    0.1631935310E+02    0.8570447922E+01    0.3141613197E+02    0.3646786499E+02    0.1777029991E+01    0    0
  -16    1    3    3    0    0   -0.1863028145E+02   -0.2182048416E+02   -0.2983824539E+02    0.4139495087E+02    0.0000000000E+00    0    0
   16    1    4    4    0    0   -0.3673476410E+02    0.1691683388E+02    0.8597345352E+01    0.4134654236E+02    0.0000000000E+00    0    0
  -15    2    4    4    0    0    0.3904579926E+02   -0.3666977882E+01   -0.9862282753E+01    0.4047769547E+02    0.1777029991E+01    0    0
   16    1    6    6    0    0    0.4071731091E+01    0.2717212677E+01    0.8139396667E+01    0.9498001099E+01    0.4628219758E-03    0    0
  -24    2    6    6    0    0    0.1224826622E+02    0.5853573322E+01    0.2327797508E+02    0.2697130013E+02    0.1141335607E+01    0    0
 -211    1   11   11    0    0    0.7192118168E+01    0.3800039053E+01    0.1398224449E+02    0.1617682076E+02    0.1395680010E+00    0    0
 -211    1   11   11    0    0    0.1218269110E+01    0.3743041456E+00    0.2216707230E+01    0.2560771942E+01    0.1395681947E+00    0    0
  211    1   11   11    0    0    0.3158281803E+01    0.1356944680E+01    0.5840375900E+01    0.6778312206E+01    0.1395680159E+00    0    0
  111    1   11   11    0    0    0.6795960665E+00    0.3222852349E+00    0.1238645315E+01    0.1455395460E+01    0.1349639744E+00    0    0
  -16    1    9    9    0    0    0.2232686043E+02   -0.2065451145E+01   -0.4816038132E+01    0.2293357849E+02    0.4228639591E-03    0    0
  321    1    9    9    0    0    0.1672047997E+02   -0.1601671219E+01   -0.5046633720E+01    0.1754571152E+02    0.4936669469E+00    0    0
</event>
<event>
   14 9999    1    0.9119999695E+02    0.7565275169E-02    0.1185000000E+00
   11   -1    0    0    0    0    0.0000000000E+00    0.0000000000E+00    0.8000000000E+02    0.8000000000E+02    0.5109988851E-03    0    0
  -11   -1    0    0    0    0    0.0000000000E+00    0.0000000000E+00   -0.8000000000E+02    0.8000000000E+02    0.5109988851E-03    0    0
  -24    2    1    2    0    0    0.1237665272E+02   -0.1938725662E+02    0.1460172772E+01    0.8339366913E+02    0.8014564514E+02    0    0
   24    2    1    2    0    0   -0.1237665272E+02    0.1938725662E+02   -0.1460262895E+01    0.7660624695E+02    0.7305708313E+02    0    0
   22    1    1    2    0    0   -0.6082190396E-07   -0.1926239719E-06    0.9001410945E-04    0.9001433500E-04    0.0000000000E+00    0    0
   15    2    3    3    0    0    0.2292386818E+02   -0.4747874069E+02   -0.3961005449E+01    0.5290162659E+02    0.1777029991E+01    0    0
  -16    1    3    3    0    0   -0.1054721546E+02    0.2809148407E+02    0.5421178341E+01    0.3049203873E+02    0.0000000000E+00    0    0
   16    1    4    4    0    0    0.6650407791E+01    0.1211696243E+02    0.3342536545E+02    0.3617047882E+02    0.0000000000E+00    0    0
  -15    2    4    4    0    0   -0.1902706146E+02    0.7270295143E+01   -0.3488562775E+02    0.4043576431E+02    0.1777029991E+01    0    0
   16    1    6    6    0    0    0.1648014450E+02   -0.3252455902E+02   -0.2608849049E+01    0.3655472946E+02    0.4002342757E-03    0    0
 -321    1    6    6    0    0    0.6444628239E+01   -0.1495605373E+02   -0.1352312446E+01    0.1634898186E+02    0.4936669767E+00    0    0
  -16    1    9    9    0    0   -0.1019039154E+02    0.4124528885E+01   -0.1906522751E+02    0.2200769806E+02    0.2283726499E-03    0    0
  -13    1    9    9    0    0   -0.3042998075E+01    0.1399594307E+01   -0.4771638870E+01    0.5830814838E+01    0.1056594551E+00    0    0
   14    1    9    9    0    0   -0.5794420719E+01    0.1746458411E+01   -0.1105013371E+02    0.1259884453E+02    0.1779465238E-03    0    0
</event>
<event>
   19 9999    1    0.9119999695E+02    0.7565275169E-02    0.1185000000E+00
   11   -1    0    0    0    0    0.0000000000E+00    0.0000000000E+00    0.8000000000E+02    0.8000000000E+02    0.5109988851E-03    0    0
  -11   -1    0    0    0    0    0.0000000000E+00    0.0000000000E+00   -0.8000000000E+02    0.8000000000E+02    0.5109988851E-03    0    0
  -24    2    1    2    0    0   -0.8508660316E+01   -0.4141734695E+02    0.1900524330E+02    0.5947287369E+02    0.3725626755E+02    0    0
   24    2    1    2    0    0    0.8508660316E+01    0.4141734695E+02   -0.1900586510E+02    0.1005265045E+03    0.8919955444E+02    0    0
   22    1    1    2    0    0   -0.7562105253E-07    0.2119984828E-06    0.6219856441E-03    0.6219857023E-03    0.0000000000E+00    0    0
   15    2    3    3    0    0   -0.7046452999E+01   -0.3318929291E+02    0.3023096657E+02    0.4547802734E+02    0.1777029991E+01    0    0
  -16    1    3    3    0    0   -0.1462206960E+01   -0.8228054047E+01   -0.1122572136E+02    0.1399484730E+02    0.0000000000E+00    0    0
   16    1    4    4    0    0    0.2562444115E+02   -0.1035809612E+02    0.1943199539E+02    0.3378615952E+02    0.0000000000E+00    0    0
  -15    2    4    4    0    0   -0.1711578178E+02    0.5177544403E+02   -0.3843786240E+02    0.6674034119E+02    0.1777029991E+01    0    0
   16    1    6    6    0    0   -0.3812214732E-01   -0.8960366994E-01    0.1779172570E+00    0.2028222382E+00    0.4401307669E-03    0    0
  -24    2    6    6    0    0   -0.7008608341E+01   -0.3310099792E+02    0.3005423737E+02    0.4527699280E+02    0.1397270560E+01    0    0
 -321    1   11   11    0    0   -0.2482136488E+01   -0.1292070866E+02    0.1179290771E+02    0.1767546463E+02    0.4936670661E+00    0    0
 -211    1   11   11    0    0   -0.3384475708E+00   -0.1351670861E+01    0.1427480698E+01    0.1999685287E+01    0.1395679712E+00    0    0
  211    1   11   11    0    0   -0.4188024521E+01   -0.1882862091E+02    0.1683385277E+02    0.2560184669E+02    0.1395678818E+00    0    0
  -16    1    9    9    0    0   -0.4327786446E+01    0.1366550159E+02   -0.9728222847E+01    0.1732379913E+02    0.2729575208E-03    0    0
   24    2    9    9    0    0   -0.1278866863E+02    0.3811198044E+02   -0.2871115112E+02    0.4941917419E+02    0.1360650897E+01    0    0
  211    1   16   16    0    0   -0.2555766821E+01    0.8002315521E+01   -0.5704014301E+01    0.1015501118E+02    0.1395679861E+00    0    0
  310    1   16   16    0    0   -0.5241504669E+01    0.1644304276E+02   -0.1228015995E+02    0.2118719101E+02    0.4977199733E+00    0    0
  111    1   16   16    0    0   -0.4991396904E+01    0.1366662216E+02   -0.1072697639E+02    0.1807696915E+02    0.1349646449E+00    0    0
</event>
<event>
   21 9999    1    0.9119999695E+02    0.7565275169E-02    0.1185000000E+00
   11   -1    0    0    0    0    0.0000000000E+00    0.0000000000E+00    0.8000000000E+02    0.8000000000E+02    0.5109988851E-03    0    0
  -11   -1    0    0    0    0    0.0000000000E+00    0.0000000000E+00   -0.8000000000E+02    0.8000000000E+02    0.5109988851E-03    0    0
  -24    2    1    2    0    0    0.2034870911E+02    0.5868438244E+01   -0.1526161671E+02    0.8550414276E+02    0.8142194366E+02    0    0
   24    2    1    2    0    0   -0.2034871101E+02   -0.5868438721E+01    0.1527142334E+02    0.7448605347E+02    0.6975992584E+02    0    0
   22    1    1    2    0    0    0.9334771107E-06    0.4814846193E-06   -0.9806648828E-02    0.9806648828E-02    0.0000000000E+00    0    0
   15    2    3    3    0    0   -0.1231056118E+02    0.9512365341E+01    0.2745690918E+02    0.3160814285E+02    0.1777029991E+01    0    0
  -16    1    3    3    0    0    0.3265927124E+02   -0.3643927097E+01   -0.4271852493E+02    0.5389599991E+02    0.0000000000E+00    0    0
   16    1    4    4    0    0   -0.2139088821E+02    0.2916651726E+02   -0.1048519090E+00    0.3616997147E+02    0.0000000000E+00    0    0
  -15    2    4    4    0    0    0.1042178512E+01   -0.3503495407E+02    0.1537627602E+02    0.3831607819E+02    0.1777029991E+01    0    0
   16    1    6    6    0    0   -0.3407172680E+01    0.3091003656E+01    0.8527000427E+01    0.9688801765E+01    0.2729575208E-03    0    0
  -24    2    6    6    0    0   -0.8903873444E+01    0.6421736240E+01    0.1893099022E+02    0.2192058563E+02    0.1269678950E+01    0    0
 -211    1   11   11    0    0   -0.1958034635E+01    0.1609639406E+01    0.5076732635E+01    0.5676049232E+01    0.1395680457E+00    0    0
  310    1   11   11    0    0   -0.5599570274E+01    0.4021038055E+01    0.1145827770E+02    0.1338147163E+02    0.4977199435E+00    0    0
  111    1   11   11    0    0   -0.1346268892E+01    0.7910587192E+00    0.2395979404E+01    0.2863065958E+01    0.1349639446E+00    0    0
  -16    1    9    9    0    0    0.8859064430E-01   -0.6422115326E+01    0.3169836521E+01    0.7162351608E+01    0.1220703125E-03    0    0
   24    2    9    9    0    0    0.9536289573E+00   -0.2861421967E+02    0.1220704460E+02    0.3115523529E+02    0.1397803664E+01    0    0
  211    1   16   16    0    0    0.4062000811E+00   -0.8031378746E+01    0.3095664978E+01    0.8618042946E+01    0.1395679563E+00    0    0
  211    1   16   16    0    0    0.3887830973E+00   -0.8765133858E+01    0.3984668732E+01    0.9637208939E+01    0.1395680159E+00    0    0
  211    1   16   16    0    0    0.1047326773E+00   -0.3000034094E+01    0.1397144437E+01    0.3314010382E+01    0.1395680010E+00    0    0
 -211    1   16   16    0    0    0.1911437064E+00   -0.6543209553E+01    0.2728453875E+01    0.7093241215E+01    0.1395680010E+00    0    0
 -211    1   16   16    0    0   -0.1372306347E+00   -0.2274461985E+01    0.1001112103E+01    0.2492732286E+01    0.1395680010E+00    0    0
</event>
<event>
   16 9999    1    0.9119999695E+02    0.7565275169E-02    0.1185000000E+00
   11   -1    0    0    0    0    0.0000000000E+00    0.0000000000E+00    0.8000000000E+02    0.8000000000E+02    0.5109988851E-03    0    0
  -11   -1    0    0    0    0    0.0000000000E+00    0.0000000000E+00   -0.8000000000E+02    0.8000000000E+02    0.5109988851E-03    0    0
  -24    2    1    2    0    0   -0.8542925835E+01   -0.1266730499E+02   -0.8853371620E+01    0.7901771545E+02    0.7701931763E+02    0    0
   24    2    1    2    0    0    0.8542814255E+01    0.1266708851E+02    0.6852383137E+01    0.7898129272E+02    0.7718584442E+02    0    0
   22    1    1    2    0    0    0.1112715181E-03    0.2170573134E-03    0.2000988483E+01    0.2000988722E+01    0.0000000000E+00    0    0
   15    2    3    3    0    0   -0.3833470154E+02   -0.6494782925E+01    0.1357372189E+02    0.4122056580E+02    0.1777029991E+01    0    0
  -16    1    3    3    0    0    0.2979177475E+02   -0.6172522545E+01   -0.2242709351E+02    0.3779714966E+02    0.0000000000E+00    0    0
   16    1    4    4    0    0   -0.1275576782E+02   -0.7061858654E+01    0.3536376953E+02    0.3825148010E+02    0.0000000000E+00    0    0
  -15    2    4    4    0    0    0.2129858208E+02    0.1972894669E+02   -0.2851138687E+02    0.4072981644E+02    0.1777029991E+01    0    0
   16    1    6    6    0    0   -0.1377139950E+02   -0.2634367466E+01    0.4952304840E+01    0.1486999226E+02    0.2431850735E-03    0    0
  -24    2    6    6    0    0   -0.2456480980E+02   -0.3860671043E+01    0.8621952057E+01    0.2635219765E+02    0.1328781605E+01    0    0
  111    1   11   11    0    0   -0.4234084129E+01   -0.6349256635E+00    0.1729454398E+01    0.4619504929E+01    0.1349639893E+00    0    0
  111    1   11   11    0    0   -0.1064013100E+02   -0.1716423154E+01    0.3982673645E+01    0.1149079609E+02    0.1349637806E+00    0    0
 -321    1   11   11    0    0   -0.9690594673E+01   -0.1509322166E+01    0.2909823895E+01    0.1024189758E+02    0.4936668873E+00    0    0
  -16    1    9    9    0    0    0.1882760620E+02    0.1686489677E+02   -0.2421520805E+02    0.3500399780E+02    0.2114319796E-03    0    0
  211    1    9    9    0    0    0.2471815348E+01    0.2864827633E+01   -0.4297302246E+01    0.5727425098E+01    0.1395681202E+00    0    0
</event>
<event>
   24 9999    1    0.9119999695E+02    0.7565275169E-02    0.1185000000E+00
   11   -1    0    0    0    0    0.0000000000E+00    0.0000000000E+00    0.8000000000E+02    0.8000000000E+02    0.5109988851E-03    0    0
  -11   -1    0    0    0    0    0.0000000000E+00    0.0000000000E+00   -0.8000000000E+02    0.8000000000E+02    0.5109988851E-03    0    0
  -24    2    1    2    0    0    0.9050230026E+01   -0.1740635037E+01   -0.5605206013E+01    0.8157393646E+02    0.8085760498E+02    0    0
   24    2    1    2    0    0   -0.9040858269E+01    0.1732969642E+01    0.4253724098E+01    0.7707216644E+02    0.7640212250E+02    0    0
   22    1    1    2    0    0   -0.7934874855E-02    0.9061573073E-02    0.1310534954E+01    0.1310590267E+01    0.0000000000E+00    0    0
   22    1    1    2    0    0   -0.7818897720E-03   -0.9502966423E-03    0.4198363051E-01    0.4200166464E-01    0.0000000000E+00    0    0
   22    1    1    2    0    0   -0.6558325258E-03   -0.4459674819E-03   -0.1036645845E-02    0.1305234851E-02    0.0000000000E+00    0    0
   15    2    3    3    0    0   -0.3340020370E+02   -0.9686838150E+01    0.9030208588E+01    0.3597375488E+02    0.1777029991E+01    0    0
  -16    1    3    3    0    0    0.4245043564E+02    0.7946202755E+01   -0.1463541508E+02    0.4560018539E+02    0.0000000000E+00    0    0
   16    1    4    4    0    0    0.2605420494E+02    0.4039078236E+01   -0.2102563667E+02    0.3372259140E+02    0.0000000000E+00    0    0
  -15    2    4    4    0    0   -0.3509506226E+02   -0.2306108713E+01    0.2527936172E+02    0.4334957123E+02    0.1777029991E+01    0    0
   16    1    8    8    0    0   -0.1013577652E+02   -0.2937096119E+01    0.3139552593E+01    0.1100987244E+02    0.3452669771E-03    0    0
  -24    2    8    8    0    0   -0.2326574135E+02   -0.6750123024E+01    0.5891011715E+01    0.2496529770E+02    0.1305042744E+01    0    0
  111    1   13   13    0    0   -0.7570422173E+01   -0.2020193338E+01    0.1939462423E+01    0.8072930336E+01    0.1349640489E+00    0    0
  111    1   13   13    0    0   -0.5336470604E+01   -0.1228863358E+01    0.1273928642E+01    0.5623978615E+01    0.1349637657E+00    0    0
 -321    1   13   13    0    0   -0.1035885143E+02   -0.3501066685E+01    0.2677621365E+01    0.1126839066E+02    0.4936670661E+00    0    0
  -16    1   11   11    0    0   -0.3081666946E+01   -0.3190227225E-01    0.1986023307E+01    0.3666330099E+01    0.6103515625E-04    0    0
   24    2   11   11    0    0   -0.3201477814E+02   -0.2274297237E+01    0.2329433250E+02    0.3968494797E+02    0.1466585159E+01    0    0
  211    1   18   18    0    0   -0.1825760603E+01   -0.1368763745E+00    0.1377430081E+01    0.2295414925E+01    0.1395679861E+00    0    0
  211    1   18   18    0    0   -0.4104572296E+01   -0.2173060924E+00    0.3100298166E+01    0.5150345802E+01    0.1395679861E+00    0    0
 -211    1   18   18    0    0   -0.5857814312E+01   -0.6655420065E+00    0.4169107437E+01    0.7222040653E+01    0.1395679116E+00    0    0
  111    1   18   18    0    0   -0.1481811166E+01   -0.2071590535E-01    0.1094411254E+01    0.1847199202E+01    0.1349639744E+00    0    0
  111    1   18   18    0    0   -0.1520716572E+02   -0.1043274760E+01    0.1117397499E+02    0.1890032387E+02    0.1349639595E+00    0    0
  111    1   18   18    0    0   -0.3537652016E+01   -0.1905819774E+00    0.2379109621E+01    0.4269623280E+01    0.1349639893E+00    0    0
</event>
<event>
   21 9999    1    0.9119999695E+02    0.7565275169E-02    0.1185000000E+00
   11   -1    0    0    0    0    0.0000000000E+00    0.0000000000E+00    0.8000000000E+02    0.8000000000E+02    0.5109988851E-03    0    0
  -11   -1    0    0    0    0    0.0000000000E+00    0.0000000000E+00   -0.8000000000E+02    0.8000000000E+02    0.5109988851E-03    0    0
  -24    2    1    2    0    0    0.3380789518E+01    0.1621026278E+01   -0.3006439686E+01    0.7993429565E+02    0.7978969574E+02    0    0
   24    2    1    2    0    0   -0.3380804300E+01   -0.1621014118E+01    0.2183715343E+01    0.7924297333E+02    0.7912409973E+02    0    0
   22    1    1    2    0    0    0.1492281262E-04   -0.1216161854E-04    0.8227245808E+00    0.8227245808E+00    0.0000000000E+00    0    0
   15    2    3    3    0    0   -0.3218730164E+02    0.1205200768E+02   -0.1928571892E+02    0.3945085526E+02    0.1777029991E+01    0    0
  -16    1    3    3    0    0    0.3556808853E+02   -0.1043098164E+02    0.1627927780E+02    0.4048344421E+02    0.0000000000E+00    0    0
   16    1    4    4    0    0   -0.2651380157E+02    0.1844799232E+02    0.2513756943E+02    0.4092929840E+02    0.0000000000E+00    0    0
  -15    2    4    4    0    0    0.2313299751E+02   -0.2006900597E+02   -0.2295385361E+02    0.3831367874E+02    0.1777029991E+01    0    0
   16    1    6    6    0    0   -0.3783653259E+01    0.1098436952E+01   -0.2203364849E+01    0.4514134884E+01    0.5777125480E-03    0    0
  -24    2    6    6    0    0   -0.2840491295E+02    0.1095404434E+02   -0.1708311081E+02    0.3493827057E+02    0.1421247363E+01    0    0
  111    1   11   11    0    0   -0.9560245514E+01    0.3437059879E+01   -0.5437187195E+01    0.1152357960E+02    0.1349648833E+00    0    0
  111    1   11   11    0    0   -0.9275427818E+01    0.3798155069E+01   -0.5366933346E+01    0.1137021255E+02    0.1349641085E+00    0    0
 -321    1   11   11    0    0   -0.9569236755E+01    0.3718828678E+01   -0.6278989792E+01    0.1204447556E+02    0.4936670661E+00    0    0
  -16    1    9    9    0    0    0.3145544767E+01   -0.2785770178E+01   -0.2913389206E+01    0.5113003254E+01    0.6103515625E-04    0    0
   24    2    9    9    0    0    0.1998836327E+02   -0.1728402519E+02   -0.2004136848E+02    0.3320217896E+02    0.1567224264E+01    0    0
  211    1   16   16    0    0    0.1507398844E+01   -0.1600802302E+01   -0.1500107050E+01    0.2665449381E+01    0.1395679563E+00    0    0
  211    1   16   16    0    0    0.4222655296E+01   -0.3568001509E+01   -0.4222650528E+01    0.6957852364E+01    0.1395679861E+00    0    0
  211    1   16   16    0    0    0.2948286295E+01   -0.2182288408E+01   -0.3026480675E+01    0.4757503510E+01    0.1395678222E+00    0    0
 -211    1   16   16    0    0    0.2552346706E+01   -0.2172100306E+01   -0.2435522079E+01    0.4145327568E+01    0.1395679861E+00    0    0
 -211    1   16   16    0    0    0.8757675171E+01   -0.7760833740E+01   -0.8856607437E+01    0.1467604828E+02    0.1395678520E+00    0    0
</event>
<event>
   22 9999    1    0.9119999695E+02    0.7565275169E-02    0.1185000000E+00
   11   -1    0    0    0    0    0.0000000000E+00    0.0000000000E+00    0.8000000000E+02    0.8000000000E+02    0.5109988851E-03    0    0
  -11   -1    0    0    0    0    0.0000000000E+00    0.0000000000E+00   -0.8000000000E+02    0.8000000000E+02    0.5109988851E-03    0    0
  -24    2    1    2    0    0    0.4688285887E+00   -0.1017257500E+02   -0.6894148350E+01    0.7745161438E+02    0.7646909332E+02    0    0
   24    2    1    2    0    0   -0.5696666837E+00    0.1011866856E+02    0.7738628864E+01    0.8084199524E+02    0.7983000183E+02    0    0
   22    1    1    2    0    0    0.6564740837E-01    0.8405763656E-01   -0.1258239269E+01    0.1262751460E+01    0.0000000000E+00    0    0
   22    1    1    2    0    0    0.4931855365E-03   -0.1192666008E-02    0.3918367922E+00    0.3918389380E+00    0.0000000000E+00    0    0
   22    1    1    2    0    0    0.3495566547E-01   -0.2926584706E-01    0.2269527130E-01    0.5092605948E-01    0.0000000000E+00    0    0
   22    1    1    2    0    0   -0.2581915469E-03    0.3073241969E-03   -0.7733555976E-03    0.8713150164E-03    0.0000000000E+00    0    0
   15    2    3    3    0    0   -0.2713730812E+02   -0.2010029793E+02    0.1859126282E+02    0.3859078217E+02    0.1777029991E+01    0    0
  -16    1    3    3    0    0    0.2760613632E+02    0.9927723885E+01   -0.2548541069E+02    0.3886083603E+02    0.0000000000E+00    0    0
   16    1    4    4    0    0   -0.1139961720E+02    0.3442447662E+02    0.2924178505E+02    0.4658409500E+02    0.0000000000E+00    0    0
  -15    2    4    4    0    0    0.1082995033E+02   -0.2430580902E+02   -0.2150315666E+02    0.3425790024E+02    0.1777029991E+01    0    0
   16    1    9    9    0    0   -0.7918047428E+01   -0.5705243111E+01    0.5377109051E+01    0.1114264679E+02    0.3085014760E-03    0    0
  -24    2    9    9    0    0   -0.1922033119E+02   -0.1439584732E+02    0.1321488571E+02    0.2744965553E+02    0.1479468822E+01    0    0
  221    1   14   14    0    0   -0.8784283638E+01   -0.6902212143E+01    0.6327850819E+01    0.1285095501E+02    0.5487998724E+00    0    0
 -211    1   14   14    0    0   -0.7299357891E+01   -0.5307244301E+01    0.4457461357E+01    0.1006657410E+02    0.1395676434E+00    0    0
  111    1   14   14    0    0   -0.3136689901E+01   -0.2186390877E+01    0.2429573774E+01    0.4532126904E+01    0.1349638999E+00    0    0
  -16    1   12   12    0    0    0.3452723980E+01   -0.7784390926E+01   -0.6788099289E+01    0.1089019489E+02    0.4531629093E-03    0    0
   24    2   12   12    0    0    0.7377652645E+01   -0.1652237320E+02   -0.1471590233E+02    0.2336905289E+02    0.1461595058E+01    0    0
  321    1   19   19    0    0    0.4169111729E+01   -0.8997612000E+01   -0.8406892776E+01    0.1300992107E+02    0.4936671555E+00    0    0
  211    1   19   19    0    0    0.2400371790E+01   -0.6141793251E+01   -0.4836918831E+01    0.8179161072E+01    0.1395680606E+00    0    0
 -211    1   19   19    0    0    0.8081685305E+00   -0.1382966518E+01   -0.1472090364E+01    0.2179968357E+01    0.1395679861E+00    0    0
</event>
<event>
   20 9999    1    0.9119999695E+02    0.7565275169E-02    0.1185000000E+00
   11   -1    0    0    0    0    0.0000000000E+00    0.0000000000E+00    0.8000000000E+02    0.8000000000E+02    0.5109988851E-03    0    0
  -11   -1    0    0    0    0    0.0000000000E+00    0.0000000000E+00   -0.8000000000E+02    0.8000000000E+02    0.5109988851E-03    0    0
  -24    2    1    2    0    0    0.4817945957E+01    0.6400570393E+01    0.2314831257E+01    0.8291003418E+02    0.8248960876E+02    0    0
   24    2    1    2    0    0   -0.4817970753E+01   -0.6400881290E+01   -0.2308837652E+01    0.7708352661E+02    0.7663129425E+02    0    0
   22    1    1    2    0    0    0.2456856964E-04    0.3107303637E-03   -0.5487938412E-02    0.5496783182E-02    0.0000000000E+00    0    0
   22    1    1    2    0    0    0.3951335259E-07   -0.2378314967E-07   -0.7242456195E-03    0.7242456195E-03    0.0000000000E+00    0    0
   22    1    1    2    0    0    0.8823691999E-08   -0.3456700481E-08    0.2185171616E-03    0.2185171616E-03    0.0000000000E+00    0    0
   15    2    3    3    0    0   -0.3640235138E+02    0.1194206142E+02   -0.9810972214E+01    0.3958733749E+02    0.1777029991E+01    0    0
  -16    1    3    3    0    0    0.4122029877E+02   -0.5541491032E+01    0.1212580395E+02    0.4332270050E+02    0.0000000000E+00    0    0
   16    1    4    4    0    0   -0.5496180058E+00    0.2441399002E+02    0.2550863075E+02    0.3531338501E+02    0.0000000000E+00    0    0
  -15    2    4    4    0    0   -0.4268352985E+01   -0.3081487274E+02   -0.2781746674E+02    0.4177013779E+02    0.1777029991E+01    0    0
   16    1    8    8    0    0   -0.6497377396E+01    0.2309907913E+01   -0.1816527963E+01    0.7131013870E+01    0.1726334885E-03    0    0
  -24    2    8    8    0    0   -0.2990640831E+02    0.9632623672E+01   -0.7994831085E+01    0.3245788193E+02    0.1554331779E+01    0    0
 -321    1   13   13    0    0   -0.1014486122E+02    0.3034067869E+01   -0.2940114737E+01    0.1100053501E+02    0.4936670065E+00    0    0
 -211    1   13   13    0    0   -0.9514174461E+01    0.3461559057E+01   -0.2431404114E+01    0.1041312218E+02    0.1395678818E+00    0    0
  321    1   13   13    0    0   -0.1024737263E+02    0.3136996746E+01   -0.2623311758E+01    0.1104422379E+02    0.4936670065E+00    0    0
  -16    1   11   11    0    0   -0.1923964977E+01   -0.1716925430E+02   -0.1581030655E+02    0.2341902542E+02    0.1364787604E-03    0    0
  323    2   11   11    0    0   -0.2344555855E+01   -0.1364683056E+02   -0.1200825596E+02    0.1835275841E+02    0.9447720647E+00    0    0
  111    1   18   18    0    0   -0.7936580181E+00   -0.6464135647E+01   -0.5670548439E+01    0.8636450768E+01    0.1349640638E+00    0    0
  321    1   18   18    0    0   -0.1550897837E+01   -0.7182694912E+01   -0.6337707520E+01    0.9716307640E+01    0.4936670065E+00    0    0
</event>
<event>
   16 9999    1    0.9119999695E+02    0.7565275169E-02    0.1185000000E+00
   11   -1    0    0    0    0    0.0000000000E+00    0.0000000000E+00    0.8000000000E+02    0.8000000000E+02    0.5109988851E-03    0    0
  -11   -1    0    0    0    0    0.0000000000E+00    0.0000000000E+00   -0.8000000000E+02    0.8000000000E+02    0.5109988851E-03    0    0
  -24    2    1    2    0    0    0.5192997932E+01    0.2289020538E+02    0.6363071442E+01    0.8318811798E+02    0.7955403900E+02    0    0
   24    2    1    2    0    0   -0.5193015099E+01   -0.2289020538E+02   -0.5236660480E+01    0.7568547058E+02    0.7176307678E+02    0    0
   22    1    1    2    0    0    0.1724633512E-04   -0.1007876790E-05   -0.1126411200E+01    0.1126411200E+01    0.0000000000E+00    0    0
   15    2    3    3    0    0   -0.2944220924E+02   -0.1163520050E+02    0.1212268829E+02    0.3394611740E+02    0.1777029991E+01    0    0
  -16    1    3    3    0    0    0.3463520813E+02    0.3452540588E+02   -0.5759616375E+01    0.4924200058E+02    0.0000000000E+00    0    0
   16    1    4    4    0    0   -0.1329871750E+02   -0.4643598175E+02   -0.1209750652E+02    0.4979463959E+02    0.0000000000E+00    0    0
  -15    2    4    4    0    0    0.8105702400E+01    0.2354577827E+02    0.6860846043E+01    0.2589083099E+02    0.1777029991E+01    0    0
   16    1    6    6    0    0   -0.7958465576E+01   -0.2858035088E+01    0.3831982374E+01    0.9283837318E+01    0.1726334885E-03    0    0
   13    1    6    6    0    0   -0.2005369568E+02   -0.7960636139E+01    0.7583742142E+01    0.2287021446E+02    0.1056590304E+00    0    0
  -14    1    6    6    0    0   -0.1431208134E+01   -0.8169870973E+00    0.7074408531E+00    0.1793403745E+01    0.7475249731E-04    0    0
  -16    1    9    9    0    0    0.5740482330E+01    0.1689137459E+02    0.5110756874E+01    0.1855778885E+02    0.1057159898E-03    0    0
  323    2    9    9    0    0    0.2365538597E+01    0.6655330658E+01    0.1750359178E+01    0.7334061623E+01    0.9140596986E+00    0    0
  111    1   14   14    0    0    0.5663027763E+00    0.9739311934E+00    0.1565990597E+00    0.1145416617E+01    0.1349638402E+00    0    0
  321    1   14   14    0    0    0.1799236178E+01    0.5681400299E+01    0.1593760371E+01    0.6188645840E+01    0.4936670661E+00    0    0
</event>
<event>
   22 9999    1    0.9119999695E+02    0.7565275169E-02    0.1185000000E+00
   11   -1    0    0    0    0    0.0000000000E+00    0.0000000000E+00    0.8000000000E+02    0.8000000000E+02    0.5109988851E-03    0    0
  -11   -1    0    0    0    0    0.0000000000E+00    0.0000000000E+00   -0.8000000000E+02    0.8000000000E+02    0.5109988851E-03    0    0
  -24    2    1    2    0    0   -0.1439453697E+02    0.2618389702E+02    0.4450526810E+02    0.6485102844E+02    0.3649845886E+02    0    0
   24    2    1    2    0    0    0.1439453697E+02   -0.2618389702E+02   -0.4450526810E+02    0.9514897156E+02    0.7861176300E+02    0    0
   15    2    3    3    0    0    0.7611224651E+00    0.1826366043E+02    0.4407149887E+02    0.4774510956E+02    0.1777029991E+01    0    0
  -16    1    3    3    0    0   -0.1515565872E+02    0.7920236111E+01    0.4337660074E+00    0.1710591316E+02    0.0000000000E+00    0    0
   16    1    4    4    0    0   -0.1836093903E+02    0.5986909866E+01   -0.4523703766E+02    0.4918695068E+02    0.0000000000E+00    0    0
  -15    2    4    4    0    0    0.2959318161E+02   -0.2887906647E+02    0.4729216695E+00    0.4139007568E+02    0.1777029991E+01    0    0
   22    1    4    4    0    0    0.3162294388E+01   -0.3291739702E+01    0.2588471174E+00    0.4571942329E+01    0.0000000000E+00    0    0
   16    1    5    5    0    0    0.4511693120E+00    0.4481932640E+01    0.1092174911E+02    0.1181422329E+02    0.3558930475E-03    0    0
  -24    2    5    5    0    0    0.3099831045E+00    0.1378244686E+02    0.3315148544E+02    0.3593276596E+02    0.1445941567E+01    0    0
 -321    1   11   11    0    0   -0.1177621484E+00    0.3446140766E+01    0.7635321140E+01    0.8392353058E+01    0.4936669171E+00    0    0
 -211    1   11   11    0    0    0.1578373909E+00    0.8056723595E+01    0.1952157402E+02    0.2111982536E+02    0.1395680904E+00    0    0
  211    1   11   11    0    0    0.2699078619E+00    0.2279582977E+01    0.5994592190E+01    0.6420588970E+01    0.1395679265E+00    0    0
  -16    1    8    8    0    0    0.3829237461E+01   -0.3923434258E+01    0.1783984452E+00    0.5485273838E+01    0.5285799489E-04    0    0
   24    2    8    8    0    0    0.2576507759E+02   -0.2495673752E+02    0.2945413888E+00    0.3590638733E+02    0.1582380056E+01    0    0
  211    1   16   16    0    0    0.3835291147E+01   -0.3729950190E+01    0.3443795741E+00    0.5362840652E+01    0.1395679861E+00    0    0
  211    1   16   16    0    0    0.3602668524E+01   -0.3479710579E+01   -0.2890535258E-01    0.5010780334E+01    0.1395680159E+00    0    0
  211    1   16   16    0    0    0.1105394125E+01   -0.1035605311E+01   -0.5130969360E-01    0.1522000790E+01    0.1395680159E+00    0    0
 -211    1   16   16    0    0    0.1956538200E+01   -0.2057836533E+01   -0.1240050653E-02    0.2842923403E+01    0.1395679861E+00    0    0
 -211    1   16   16    0    0    0.1430339432E+02   -0.1375943661E+02    0.3510631621E-01    0.1984766579E+02    0.1395680010E+00    0    0
  111    1   16   16    0    0    0.9617913365E+00   -0.8941997886E+00   -0.3489175113E-02    0.1320175409E+01    0.1349640042E+00    0    0
</event>
<event>
   23 9999    1    0.9119999695E+02    0.7565275169E-02    0.1185000000E+00
   11   -1    0    0    0    0    0.0000000000E+00    0.0000000000E+00    0.8000000000E+02    0.8000000000E+02    0.5109988851E-03    0    0
  -11   -1    0    0    0    0    0.0000000000E+00    0.0000000000E+00   -0.8000000000E+02    0.8000000000E+02    0.5109988851E-03    0    0
  -24    2    1    2    0    0   -0.3407106698E+00   -0.5451704502E+01    0.1036393356E+02    0.7464575195E+02    0.7372068787E+02    0    0
   24    2    1    2    0    0    0.3407103419E+00    0.5451704979E+01   -0.1036306572E+02    0.8535337830E+02    0.8454566193E+02    0    0
   22    1    1    2    0    0    0.3400054140E-06   -0.2025144568E-06   -0.8680414758E-03    0.8680415922E-03    0.0000000000E+00    0    0
   15    2    3    3    0    0    0.1454152489E+02   -0.3065750504E+02    0.2288937378E+02    0.4096852493E+02    0.1777029991E+01    0    0
  -16    1    3    3    0    0   -0.1453638554E+02    0.2614095879E+02   -0.1294961357E+02    0.3259368896E+02    0.0000000000E+00    0    0
   22    1    3    3    0    0   -0.3458500206E+00   -0.9351582527E+00    0.4241739810E+00    0.1083539009E+01    0.0000000000E+00    0    0
   16    1    4    4    0    0    0.2541338730E+02    0.1151767731E+01    0.2892156029E+02    0.3851783371E+02    0.0000000000E+00    0    0
  -15    2    4    4    0    0   -0.2507267570E+02    0.4299937248E+01   -0.3928462601E+02    0.4683554459E+02    0.1777029991E+01    0    0
   16    1    6    6    0    0    0.6376961708E+01   -0.1280038738E+02    0.9872595787E+01    0.1737767982E+02    0.2441406250E-03    0    0
  -24    2    6    6    0    0    0.8165152550E+01   -0.1785836029E+02    0.1301770401E+02    0.2359250641E+02    0.1246938944E+01    0    0
  111    1   12   12    0    0    0.3997459650E+01   -0.8434145927E+01    0.6231273174E+01    0.1122325802E+02    0.1349637508E+00    0    0
  111    1   12   12    0    0    0.2010600567E+00   -0.7619500160E+00    0.4650242925E+00    0.9249088168E+00    0.1349638104E+00    0    0
 -321    1   12   12    0    0    0.3966632605E+01   -0.8662263870E+01    0.6321407318E+01    0.1144433975E+02    0.4936670363E+00    0    0
  -16    1   10   10    0    0   -0.2450270414E+01    0.5009909272E+00   -0.4110613346E+01    0.4811648369E+01    0.7475249731E-04    0    0
   24    2   10   10    0    0   -0.2262339211E+02    0.3799115419E+01   -0.3517556000E+02    0.4202573776E+02    0.1609868646E+01    0    0
  211    1   17   17    0    0   -0.6087388992E+01    0.1017161012E+01   -0.9125076294E+01    0.1101714230E+02    0.1395679414E+00    0    0
  211    1   17   17    0    0   -0.1646058917E+01    0.1246800572E+00   -0.2608898401E+01    0.3090450525E+01    0.1395679861E+00    0    0
 -211    1   17   17    0    0   -0.4858632565E+01    0.1034043550E+01   -0.7300158501E+01    0.8831044197E+01    0.1395679265E+00    0    0
  111    1   17   17    0    0   -0.2597361326E+01    0.2814719081E+00   -0.4026858807E+01    0.4802011967E+01    0.1349639744E+00    0    0
  111    1   17   17    0    0   -0.6708987236E+01    0.1229217529E+01   -0.1082557106E+02    0.1279580688E+02    0.1349640191E+00    0    0
  111    1   17   17    0    0   -0.7249629498E+00    0.1125412285E+00   -0.1288995028E+01    0.1489281774E+01    0.1349639744E+00    0    0
</event>
<event>
   18 9999    1    0.9119999695E+02    0.7565275169E-02    0.1185000000E+00
   11   -1    0    0    0    0    0.0000000000E+00    0.0000000000E+00    0.8000000000E+02    0.8000000000E+02    0.5109988851E-03    0    0
  -11   -1    0    0    0    0    0.0000000000E+00    0.0000000000E+00   -0.8000000000E+02    0.8000000000E+02    0.5109988851E-03    0    0
  -24    2    1    2    0    0   -0.1810915828E+01   -0.5863028765E+00    0.8543421626E+00    0.8057337952E+02    0.8054636383E+02    0    0
   24    2    1    2    0    0    0.1810915828E+01    0.5863028765E+00   -0.8543421626E+00    0.7942662048E+02    0.7939921570E+02    0    0
   15    2    3    3    0    0    0.2794010544E+02    0.1303747177E+02   -0.2430245018E+02    0.3929875565E+02    0.1777029991E+01    0    0
  -16    1    3    3    0    0   -0.2975102234E+02   -0.1362377453E+02    0.2515679169E+02    0.4127462387E+02    0.0000000000E+00    0    0
   16    1    4    4    0    0    0.5143166542E+01   -0.3914560318E+02    0.6485480666E+00    0.3948735428E+02    0.0000000000E+00    0    0
  -15    2    4    4    0    0   -0.3332250595E+01    0.3973190689E+02   -0.1502890229E+01    0.3993926620E+02    0.1777029991E+01    0    0
   16    1    5    5    0    0    0.4006190300E+01    0.1787927032E+01   -0.3259813309E+01    0.5465585709E+01    0.5268150708E-03    0    0
  -24    2    5    5    0    0    0.2393501472E+02    0.1125005722E+02   -0.2104359245E+02    0.3383471298E+02    0.1583160877E+01    0    0
 -321    1   10   10    0    0    0.7430538177E+01    0.3215462446E+01   -0.6301669121E+01    0.1027165222E+02    0.4936671257E+00    0    0
 -211    1   10   10    0    0    0.1149626732E+02    0.5758516312E+01   -0.1030919743E+02    0.1648101044E+02    0.1395680457E+00    0    0
  321    1   10   10    0    0    0.5008206844E+01    0.2276077747E+01   -0.4432724953E+01    0.7082049370E+01    0.4936669767E+00    0    0
  -16    1    8    8    0    0   -0.9172162414E-01    0.2557429075E+01    0.6136586145E-01    0.2559809208E+01    0.6959078601E-03    0    0
   24    2    8    8    0    0   -0.3240659952E+01    0.3717604065E+02   -0.1564315200E+01    0.3738102722E+02    0.1527796626E+01    0    0
  111    1   15   15    0    0   -0.4188860953E+00    0.1030818462E+02   -0.3912701905E+00    0.1032499123E+02    0.1349644810E+00    0    0
  111    1   15   15    0    0   -0.2284398675E+00    0.4051539421E+01   -0.6331870705E-01    0.4060711861E+01    0.1349642426E+00    0    0
  321    1   15   15    0    0   -0.2593333721E+01    0.2281631279E+02   -0.1109726071E+01    0.2299531937E+02    0.4936668873E+00    0    0
</event>
<event>
   20 9999    1    0.9119999695E+02    0.7565275169E-02    0.1185000000E+00
   11   -1    0    0    0    0    0.0000000000E+00    0.0000000000E+00    0.8000000000E+02    0.8000000000E+02    0.5109988851E-03    0    0
  -11   -1    0    0    0    0    0.0000000000E+00    0.0000000000E+00   -0.8000000000E+02    0.8000000000E+02    0.5109988851E-03    0    0
  -24    2    1    2    0    0   -0.1047480583E+01    0.6081598282E+01    0.3042754936E+02    0.7308771515E+02    0.6616566467E+02    0    0
   24    2    1    2    0    0    0.1476893902E+01   -0.6464148998E+01   -0.3043354607E+02    0.8621169281E+02    0.8038835907E+02    0    0
   22    1    1    2    0    0   -0.4306169152E+00    0.3815302551E+00    0.1190667003E+00    0.5875144005E+00    0.0000000000E+00    0    0
   22    1    1    2    0    0    0.1203665510E-02    0.1020393567E-02   -0.1130712554E+00    0.1130822673E+00    0.0000000000E+00    0    0
   15    2    3    3    0    0   -0.1078620720E+02   -0.2751295280E+02    0.5438169479E+01    0.3010043716E+02    0.1777029991E+01    0    0
  -16    1    3    3    0    0    0.9738726616E+01    0.3359455109E+02    0.2498937988E+02    0.4298727417E+02    0.0000000000E+00    0    0
   16    1    4    4    0    0    0.2355804825E+02    0.4693106651E+01    0.1918301773E+02    0.3074077034E+02    0.0000000000E+00    0    0
  -15    2    4    4    0    0   -0.2208115387E+02   -0.1115725613E+02   -0.4961656189E+02    0.5547092056E+02    0.1777029991E+01    0    0
   16    1    7    7    0    0   -0.4133556783E+00   -0.1204855919E+01    0.3596019000E-01    0.1274297357E+01    0.2024307178E-03    0    0
  -24    2    7    7    0    0   -0.1037327671E+02   -0.2630918121E+02    0.5402423382E+01    0.2882732773E+02    0.1432028651E+01    0    0
 -211    1   12   12    0    0   -0.2006648064E+01   -0.4414495468E+01    0.7323899865E+00    0.4906147003E+01    0.1395679265E+00    0    0
  130    1   12   12    0    0   -0.3233329773E+01   -0.7809646606E+01    0.1542103052E+01    0.8606439590E+01    0.4977198839E+00    0    0
  111    1   12   12    0    0   -0.5133298397E+01   -0.1408503914E+02    0.3127930403E+01    0.1531474018E+02    0.1349642873E+00    0    0
  -16    1   10   10    0    0   -0.9981902242E+00   -0.2993916571E+00   -0.2155963898E+01    0.2394618750E+01    0.6464533508E-03    0    0
   24    2   10   10    0    0   -0.2108383179E+02   -0.1085830307E+02   -0.4746255112E+02    0.5307847977E+02    0.1483515978E+01    0    0
  221    1   17   17    0    0   -0.9744708061E+01   -0.4786370277E+01   -0.2144351959E+02    0.2404151344E+02    0.5487998128E+00    0    0
  211    1   17   17    0    0   -0.1163776159E+01   -0.5740842819E+00   -0.3139366388E+01    0.3399859905E+01    0.1395680457E+00    0    0
  111    1   17   17    0    0   -0.1017534733E+02   -0.5497848034E+01   -0.2287966156E+02    0.2563710594E+02    0.1349640340E+00    0    0
</event>
<event>
   18 9999    1    0.9119999695E+02    0.7565275169E-02    0.1185000000E+00
   11   -1    0    0    0    0    0.0000000000E+00    0.0000000000E+00    0.8000000000E+02    0.8000000000E+02    0.5109988851E-03    0    0
  -11   -1    0    0    0    0    0.0000000000E+00    0.0000000000E+00   -0.8000000000E+02    0.8000000000E+02    0.5109988851E-03    0    0
  -24    2    1    2    0    0   -0.2426759148E+02    0.6999977112E+01    0.1871485114E+00    0.7657383728E+02    0.7228833008E+02    0    0
   24    2    1    2    0    0    0.2426759148E+02   -0.6999977112E+01   -0.1871485114E+00    0.8342616272E+02    0.7951084137E+02    0    0
   15    2    3    3    0    0    0.2147618484E+02    0.5353378296E+01    0.1683708572E+02    0.2786629677E+02    0.1777029991E+01    0    0
  -16    1    3    3    0    0   -0.4574377823E+02    0.1646598816E+01   -0.1664993668E+02    0.4870754242E+02    0.0000000000E+00    0    0
   16    1    4    4    0    0    0.4515610504E+02    0.7274540424E+01    0.2104692078E+02    0.5034844208E+02    0.0000000000E+00    0    0
  -15    2    4    4    0    0   -0.2088851357E+02   -0.1427451801E+02   -0.2123406982E+02    0.3307771683E+02    0.1777029991E+01    0    0
   16    1    5    5    0    0    0.3302641153E+01    0.6978916526E+00    0.2181907177E+01    0.4019354343E+01    0.8631674427E-04    0    0
  -24    2    5    5    0    0    0.1817439079E+02    0.4655697823E+01    0.1465584087E+02    0.2384803963E+02    0.1396900177E+01    0    0
  130    1   10   10    0    0    0.6877123356E+01    0.1650242209E+01    0.5316662312E+01    0.8861870766E+01    0.4977200329E+00    0    0
 -211    1   10   10    0    0    0.6310666084E+01    0.1506592870E+01    0.5151710510E+01    0.8285766602E+01    0.1395680755E+00    0    0
  310    1   10   10    0    0    0.4986598969E+01    0.1498862147E+01    0.4187467098E+01    0.6700400352E+01    0.4977200031E+00    0    0
  -16    1    8    8    0    0   -0.4701626778E+01   -0.3017371416E+01   -0.4423669338E+01    0.7125916004E+01    0.7792446995E-03    0    0
   24    2    8    8    0    0   -0.1618770790E+02   -0.1125770760E+02   -0.1681123543E+02    0.2595310211E+02    0.1472421050E+01    0    0
  211    1   15   15    0    0   -0.1800126433E+01   -0.1131348372E+01   -0.2093648195E+01    0.2987180233E+01    0.1395679116E+00    0    0
  310    1   15   15    0    0   -0.5542846203E+01   -0.4233516693E+01   -0.6200488567E+01    0.9345565796E+01    0.4977201521E+00    0    0
  111    1   15   15    0    0   -0.8844734192E+01   -0.5892841339E+01   -0.8517097473E+01    0.1362035465E+02    0.1349638104E+00    0    0
</event>
<event>
   16 9999    1    0.9119999695E+02    0.7565275169E-02    0.1185000000E+00
   11   -1    0    0    0    0    0.0000000000E+00    0.0000000000E+00    0.8000000000E+02    0.8000000000E+02    0.5109988851E-03    0    0
  -11   -1    0    0    0    0    0.0000000000E+00    0.0000000000E+00   -0.8000000000E+02    0.8000000000E+02    0.5109988851E-03    0    0
  -24    2    1    2    0    0    0.2342029190E+02   -0.1720328522E+02   -0.5734642506E+01    0.8517758942E+02    0.7986158752E+02    0    0
   24    2    1    2    0    0   -0.2342029190E+02    0.1720328522E+02    0.5734642506E+01    0.7482241058E+02    0.6870984650E+02    0    0
   15    2    3    3    0    0    0.1163678169E+02    0.3065183067E+02    0.8427180290E+01    0.3389874268E+02    0.1777029991E+01    0    0
  -16    1    3    3    0    0    0.1178351116E+02   -0.4785511780E+02   -0.1416182327E+02    0.5127885056E+02    0.0000000000E+00    0    0
   16    1    4    4    0    0   -0.7899055481E+01    0.3290286636E+02    0.2762477875E+02    0.4368205643E+02    0.0000000000E+00    0    0
  -15    2    4    4    0    0   -0.1552123737E+02   -0.1569958019E+02   -0.2189013481E+02    0.3114035225E+02    0.1777029991E+01    0    0
   16    1    5    5    0    0    0.3734377861E+01    0.9287308693E+01    0.3042930365E+01    0.1046227074E+02    0.1220703125E-03    0    0
   13    1    5    5    0    0    0.1457292795E+01    0.5343047142E+01    0.1407626867E+01    0.5715280533E+01    0.1056589335E+00    0    0
  -14    1    5    5    0    0    0.6445569038E+01    0.1602268219E+02    0.3976954937E+01    0.1772252464E+02    0.0000000000E+00    0    0
  -16    1    8    8    0    0   -0.5267585278E+01   -0.4897050858E+01   -0.6991737843E+01    0.1003060150E+02    0.4703074592E-04    0    0
   24    2    8    8    0    0   -0.1025426292E+02   -0.1080314827E+02   -0.1489925957E+02    0.2111097717E+02    0.1351844549E+01    0    0
  321    1   13   13    0    0   -0.4563691139E+01   -0.4311185360E+01   -0.6553622723E+01    0.9088854790E+01    0.4936669171E+00    0    0
  211    1   13   13    0    0   -0.4895674229E+01   -0.5340166569E+01   -0.6920245647E+01    0.1001969528E+02    0.1395687312E+00    0    0
 -211    1   13   13    0    0   -0.7948961854E+00   -0.1151794434E+01   -0.1425389409E+01    0.2002424717E+01    0.1395679116E+00    0    0
</event>
<event>
   18 9999    1    0.9119999695E+02    0.7565275169E-02    0.1185000000E+00
   11   -1    0    0    0    0    0.0000000000E+00    0.0000000000E+00    0.8000000000E+02    0.8000000000E+02    0.5109988851E-03    0    0
  -11   -1    0    0    0    0    0.0000000000E+00    0.0000000000E+00   -0.8000000000E+02    0.8000000000E+02    0.5109988851E-03    0    0
  -24    2    1    2    0    0    0.1362071991E+02   -0.1084023190E+02    0.9851084709E+01    0.7869915771E+02    0.7611490631E+02    0    0
   24    2    1    2    0    0   -0.1362071991E+02    0.1084023190E+02   -0.9851084709E+01    0.8130084229E+02    0.7880195618E+02    0    0
   15    2    3    3    0    0   -0.2730423689E+01   -0.4001872635E+02   -0.7766586304E+01    0.4089537048E+02    0.1777029991E+01    0    0
  -16    1    3    3    0    0    0.1635114288E+02    0.2917849350E+02    0.1761767197E+02    0.3780379105E+02    0.0000000000E+00    0    0
   16    1    4    4    0    0   -0.4539515305E+02    0.6748203754E+01    0.4573873997E+01    0.4612134552E+02    0.0000000000E+00    0    0
  -15    2    4    4    0    0    0.3177443504E+02    0.4092028141E+01   -0.1442495918E+02    0.3517949295E+02    0.1777029991E+01    0    0
   16    1    5    5    0    0   -0.1509805918E+00   -0.4567512512E+01   -0.5985558629E+00    0.4609038353E+01    0.4401307669E-03    0    0
  -24    2    5    5    0    0   -0.2579550505E+01   -0.3545278931E+02   -0.7168335915E+01    0.3628794098E+02    0.1369446158E+01    0    0
  111    1   10   10    0    0   -0.1524399042E+01   -0.1700237846E+02   -0.3267083645E+01    0.1738092804E+02    0.1349642575E+00    0    0
  111    1   10   10    0    0   -0.1773215085E+00   -0.7523362637E+01   -0.1553655267E+01    0.7685342312E+01    0.1349640340E+00    0    0
 -321    1   10   10    0    0   -0.8778300285E+00   -0.1092704773E+02   -0.2347597361E+01    0.1122167015E+02    0.4936670065E+00    0    0
  -16    1    8    8    0    0    0.2358774424E+01    0.2418460399E+00   -0.1283593297E+01    0.2696278572E+01    0.4228639591E-03    0    0
   24    2    8    8    0    0    0.2941691208E+02    0.3850343466E+01   -0.1314193439E+02    0.3248460007E+02    0.1535879254E+01    0    0
  321    1   15   15    0    0    0.1303571987E+02    0.1711498380E+01   -0.6107137680E+01    0.1450517368E+02    0.4936669767E+00    0    0
  211    1   15   15    0    0    0.4338216305E+01    0.3091588616E+00   -0.2011818171E+01    0.4794016361E+01    0.1395677775E+00    0    0
 -321    1   15   15    0    0    0.1204297829E+02    0.1829686522E+01   -0.5022979259E+01    0.1318541241E+02    0.4936670959E+00    0    0
</event>
<event>
   20 9999    1    0.9119999695E+02    0.7565275169E-02    0.1185000000E+00
   11   -1    0    0    0    0    0.0000000000E+00    0.0000000000E+00    0.8000000000E+02    0.8000000000E+02    0.5109988851E-03    0    0
  -11   -1    0    0    0    0    0.0000000000E+00    0.0000000000E+00   -0.8000000000E+02    0.8000000000E+02    0.5109988851E-03    0    0
  -24    2    1    2    0    0    0.1243773270E+02    0.2386977434E+01    0.2437647438E+02    0.8359251404E+02    0.7894998932E+02    0    0
   24    2    1    2    0    0   -0.1243773270E+02   -0.2386977434E+01   -0.2437647438E+02    0.7640748596E+02    0.7129864502E+02    0    0
   15    2    3    3    0    0    0.7932831287E+01    0.2213855553E+02    0.4738899994E+02    0.5293317032E+02    0.1777029991E+01    0    0
  -16    1    3    3    0    0    0.4504900932E+01   -0.1975157738E+02   -0.2301252556E+02    0.3065934181E+02    0.0000000000E+00    0    0
   16    1    4    4    0    0   -0.9542684555E+01    0.2575469589E+02    0.1226643467E+02    0.3008043480E+02    0.0000000000E+00    0    0
  -15    2    4    4    0    0   -0.2895047426E+01   -0.2814167404E+02   -0.3664291000E+02    0.4632705307E+02    0.1777029991E+01    0    0
   16    1    5    5    0    0    0.2437748760E+00    0.4478229284E+00    0.8463464379E+00    0.9880657196E+00    0.1525878906E-04    0    0
  -24    2    5    5    0    0    0.7689368725E+01    0.2169160271E+02    0.4654451752E+02    0.5194718933E+02    0.1570392370E+01    0    0
 -211    1   10   10    0    0    0.9645261765E+00    0.2159924507E+01    0.5175288677E+01    0.5691983700E+01    0.1395679563E+00    0    0
 -211    1   10   10    0    0    0.5641998649E+00    0.1603992701E+01    0.3327347517E+01    0.3739228964E+01    0.1395679861E+00    0    0
 -211    1   10   10    0    0    0.2887588501E+01    0.8633132935E+01    0.1836206818E+02    0.2049522209E+02    0.1395680010E+00    0    0
  211    1   10   10    0    0    0.9886493683E+00    0.3699850798E+01    0.7913442612E+01    0.8792518616E+01    0.1395678967E+00    0    0
  211    1   10   10    0    0    0.2284404755E+01    0.5594702244E+01    0.1176637173E+02    0.1322823429E+02    0.1395680308E+00    0    0
  -16    1    8    8    0    0   -0.4849213660E+00   -0.4338364601E+01   -0.6388682365E+01    0.7737688065E+01    0.1220703125E-03    0    0
20213    2    8    8    0    0   -0.2410240173E+01   -0.2380441666E+02   -0.3025567055E+02    0.3859118652E+02    0.1189407468E+01    0    0
  211    1   17   17    0    0   -0.1196981430E+01   -0.8594196320E+01   -0.1055515194E+02    0.1366468811E+02    0.1395680457E+00    0    0
  211    1   17   17    0    0   -0.9220065475E+00   -0.1335254097E+02   -0.1717640114E+02    0.2177587318E+02    0.1395681351E+00    0    0
 -211    1   17   17    0    0   -0.2912524343E+00   -0.1857683182E+01   -0.2524122238E+01    0.3150632858E+01    0.1395680159E+00    0    0
</event>
<event>
   17 9999    1    0.9119999695E+02    0.7565275169E-02    0.1185000000E+00
   11   -1    0    0    0    0    0.0000000000E+00    0.0000000000E+00    0.8000000000E+02    0.8000000000E+02    0.5109988851E-03    0    0
  -11   -1    0    0    0    0    0.0000000000E+00    0.0000000000E+00   -0.8000000000E+02    0.8000000000E+02    0.5109988851E-03    0    0
  -24    2    1    2    0    0    0.1015147114E+02   -0.1137648106E+02   -0.1048072529E+02    0.7834919739E+02    0.7613326263E+02    0    0
   24    2    1    2    0    0   -0.1015147114E+02    0.1137648106E+02    0.1048180485E+02    0.8164759064E+02    0.7952347565E+02    0    0
   22    1    1    2    0    0    0.6302261824E-07   -0.1338646971E-08   -0.2148601692E-02    0.2148601692E-02    0.0000000000E+00    0    0
   22    1    1    2    0    0    0.9251986199E-07    0.1062190336E-07    0.1068599988E-02    0.1068599988E-02    0.0000000000E+00    0    0
   15    2    3    3    0    0    0.2279126167E+02    0.1258304596E+02    0.2334507179E+02    0.3501321030E+02    0.1777029991E+01    0    0
  -16    1    3    3    0    0   -0.1263979053E+02   -0.2395952606E+02   -0.3382579803E+02    0.4333598709E+02    0.0000000000E+00    0    0
   16    1    4    4    0    0    0.6491735935E+01   -0.2897800827E+02    0.2141489029E+02    0.3661236572E+02    0.0000000000E+00    0    0
  -15    2    4    4    0    0   -0.1664320755E+02    0.4035448837E+02   -0.1093308640E+02    0.4503522491E+02    0.1777029991E+01    0    0
   16    1    7    7    0    0    0.9500071526E+01    0.5116837978E+01    0.8525521278E+01    0.1375201511E+02    0.2441406250E-03    0    0
 -211    1    7    7    0    0    0.1329208755E+02    0.7466702938E+01    0.1482046986E+02    0.2126257324E+02    0.1395679563E+00    0    0
  -16    1   10   10    0    0   -0.8028656960E+01    0.1847303963E+02   -0.5068674088E+01    0.2077026749E+02    0.1113473481E-03    0    0
   24    2   10   10    0    0   -0.8615204811E+01    0.2188303757E+02   -0.5864842415E+01    0.2426672935E+02    0.1178414702E+01    0    0
  211    1   14   14    0    0   -0.1028323054E+01    0.2027364492E+01   -0.5825011730E+00    0.2350838423E+01    0.1395677924E+00    0    0
  111    1   14   14    0    0   -0.2572657347E+01    0.7627055645E+01   -0.1831390023E+01    0.8256072998E+01    0.1349635422E+00    0    0
   22    1   14   14    0    0   -0.5014223576E+01    0.1222861576E+02   -0.3450950861E+01    0.1365981483E+02    0.6103515625E-04    0    0
</event>
<event>
   18 9999    1    0.9119999695E+02    0.7565275169E-02    0.1185000000E+00
   11   -1    0    0    0    0    0.0000000000E+00    0.0000000000E+00    0.8000000000E+02    0.8000000000E+02    0.5109988851E-03    0    0
  -11   -1    0    0    0    0    0.0000000000E+00    0.0000000000E+00   -0.8000000000E+02    0.8000000000E+02    0.5109988851E-03    0    0
  -24    2    1    2    0    0   -0.2209454918E+02   -0.7108600140E+01    0.1667757416E+02    0.8482151794E+02    0.7986142731E+02    0    0
   24    2    1    2    0    0    0.2209411430E+02    0.7107994080E+01   -0.1666947556E+02    0.7516620636E+02    0.6952275848E+02    0    0
   22    1    1    2    0    0   -0.8055346967E-07   -0.7430165283E-07   -0.1002504677E-01    0.1002504677E-01    0.0000000000E+00    0    0
   22    1    1    2    0    0   -0.2140463984E-07   -0.1477301614E-08    0.1227889792E-02    0.1227889792E-02    0.0000000000E+00    0    0
   22    1    1    2    0    0    0.4341612803E-03    0.6064954796E-03    0.6995387375E-03    0.1022588462E-02    0.0000000000E+00    0    0
   15    2    3    3    0    0   -0.4989193726E+02   -0.1790117264E+02    0.1417539883E+02    0.5489769745E+02    0.1777029991E+01    0    0
  -16    1    3    3    0    0    0.2779738617E+02    0.1079257202E+02    0.2502175331E+01    0.2992382431E+02    0.0000000000E+00    0    0
   16    1    4    4    0    0    0.7609294891E+01    0.4274206758E+00    0.2730797005E+02    0.2835153008E+02    0.0000000000E+00    0    0
  -15    2    4    4    0    0    0.1448482037E+02    0.6680572987E+01   -0.4397744751E+02    0.4681467438E+02    0.1777029991E+01    0    0
   16    1    8    8    0    0   -0.2507075548E+01   -0.1168677449E+01    0.6859130263E+00    0.2849861622E+01    0.3829925554E-03    0    0
  -24    2    8    8    0    0   -0.4738682556E+02   -0.1673320007E+02    0.1349004364E+02    0.5204999542E+02    0.1307527423E+01    0    0
 -211    1   13   13    0    0   -0.1564140415E+02   -0.5818257332E+01    0.4678256512E+01    0.1733237457E+02    0.1395680755E+00    0    0
  111    1   13   13    0    0   -0.5999945164E+01   -0.1897131681E+01    0.1368050575E+01    0.6441135406E+01    0.1349640936E+00    0    0
   22    1   13   13    0    0   -0.2574547958E+02   -0.9017811775E+01    0.7443737984E+01    0.2827648926E+02    0.2763484372E-03    0    0
  -16    1   11   11    0    0    0.6237798691E+01    0.3067306519E+01   -0.2150654030E+02    0.2260198593E+02    0.1726334885E-03    0    0
  321    1   11   11    0    0    0.8247591972E+01    0.3613529921E+01   -0.2247263908E+02    0.2421453285E+02    0.4936670959E+00    0    0
</event>
<event>
   18 9999    1    0.9119999695E+02    0.7565275169E-02    0.1185000000E+00
   11   -1    0    0    0    0    0.0000000000E+00    0.0000000000E+00    0.8000000000E+02    0.8000000000E+02    0.5109988851E-03    0    0
  -11   -1    0    0    0    0    0.0000000000E+00    0.0000000000E+00   -0.8000000000E+02    0.8000000000E+02    0.5109988851E-03    0    0
  -24    2    1    2    0    0    0.1161624432E+02    0.7416194916E+01    0.6717032194E+00    0.7824936676E+02    0.7702321625E+02    0    0
   24    2    1    2    0    0   -0.1161623955E+02   -0.7416195869E+01   -0.6645137668E+00    0.8174343872E+02    0.8057054138E+02    0    0
   22    1    1    2    0    0   -0.4947368780E-05    0.1066228265E-05   -0.7189472206E-02    0.7189474069E-02    0.0000000000E+00    0    0
   15    2    3    3    0    0    0.6094302654E+01    0.9196385384E+01    0.1622687721E+02    0.1970236397E+02    0.1777029991E+01    0    0
  -16    1    3    3    0    0    0.4033739567E+01   -0.1463256645E+02   -0.3329424286E+02    0.3659084702E+02    0.0000000000E+00    0    0
   22    1    3    3    0    0    0.1488201976E+01    0.1285237598E+02    0.1773906898E+02    0.2195615768E+02    0.0000000000E+00    0    0
   16    1    4    4    0    0    0.1297784233E+02   -0.3925891113E+02   -0.2536504030E+01    0.4142608261E+02    0.0000000000E+00    0    0
  -15    2    4    4    0    0   -0.2459408188E+02    0.3184271431E+02    0.1871990204E+01    0.4031735992E+02    0.1777029991E+01    0    0
   16    1    6    6    0    0    0.1998777270E+01    0.4010215759E+01    0.6378450871E+01    0.7794969082E+01    0.5106567405E-03    0    0
  -24    2    6    6    0    0    0.4095760822E+01    0.5186526775E+01    0.9849054337E+01    0.1190815735E+02    0.1060727119E+01    0    0
 -211    1   12   12    0    0    0.8000705242E+00    0.8838952780E+00    0.1650361657E+01    0.2040723801E+01    0.1395681500E+00    0    0
 -211    1   12   12    0    0    0.2268526405E+00    0.2060703784E+00    0.6801306605E+00    0.7589355707E+00    0.1395679712E+00    0    0
  211    1   12   12    0    0    0.1790035844E+01    0.2153256178E+01    0.3855856180E+01    0.4767371655E+01    0.1395679712E+00    0    0
  111    1   12   12    0    0    0.1278801084E+01    0.1943304658E+01    0.3662706614E+01    0.4341126442E+01    0.1349639893E+00    0    0
  -16    1   10   10    0    0   -0.1800481987E+02    0.2321857452E+02    0.7009541392E+00    0.2938991356E+02    0.3452669771E-03    0    0
  321    1   10   10    0    0   -0.6590231419E+01    0.8625394821E+01    0.1171109915E+01    0.1092903423E+02    0.4936669767E+00    0    0
</event>
<event>
   21 9999    1    0.9119999695E+02    0.7565275169E-02    0.1185000000E+00
   11   -1    0    0    0    0    0.0000000000E+00    0.0000000000E+00    0.8000000000E+02    0.8000000000E+02    0.5109988851E-03    0    0
  -11   -1    0    0    0    0    0.0000000000E+00    0.0000000000E+00   -0.8000000000E+02    0.8000000000E+02    0.5109988851E-03    0    0
  -24    2    1    2    0    0    0.1216127872E+02    0.2107442856E+01    0.1951015472E+02    0.7282075500E+02    0.6906430817E+02    0    0
   24    2    1    2    0    0   -0.1216573620E+02   -0.2104677200E+01   -0.1641598129E+02    0.8408506012E+02    0.8153759003E+02    0    0
   22    1    1    2    0    0    0.4457720090E-02   -0.2765597077E-02   -0.3094173908E+01    0.3094178438E+01    0.0000000000E+00    0    0
   15    2    3    3    0    0    0.1310077286E+02    0.1680631876E+01    0.3665114212E+02    0.3899895477E+02    0.1777029991E+01    0    0
  -16    1    3    3    0    0    0.2984238625E+01    0.2662095547E+01   -0.2469728851E+02    0.2501896667E+02    0.0000000000E+00    0    0
   22    1    3    3    0    0   -0.3923732996E+01   -0.2235284567E+01    0.7556303024E+01    0.8802834511E+01    0.0000000000E+00    0    0
   16    1    4    4    0    0   -0.2651877975E+02    0.3323146439E+02    0.2207744680E-01    0.4251560211E+02    0.0000000000E+00    0    0
  -15    2    4    4    0    0    0.1435304356E+02   -0.3533613968E+02   -0.1643805695E+02    0.4156946182E+02    0.1777029991E+01    0    0
   16    1    6    6    0    0    0.2877011776E+01    0.1231728569E+00    0.7824377060E+01    0.8337459564E+01    0.8631674427E-04    0    0
  -24    2    6    6    0    0    0.1022428608E+02    0.1557526350E+01    0.2882823181E+02    0.3066305733E+02    0.1481343269E+01    0    0
 -211    1   12   12    0    0    0.9109191298E+00    0.1623780131E+00    0.2603054047E+01    0.2766136169E+01    0.1395680010E+00    0    0
 -211    1   12   12    0    0    0.4347059727E+01    0.3955222964E+00    0.1207782936E+02    0.1284316158E+02    0.1395680755E+00    0    0
 -211    1   12   12    0    0    0.1753642559E+01    0.2606699765E+00    0.5171616554E+01    0.5468848705E+01    0.1395680010E+00    0    0
  211    1   12   12    0    0    0.1190446138E+01    0.2361646295E+00    0.3742305040E+01    0.3936655521E+01    0.1395680010E+00    0    0
  211    1   12   12    0    0    0.1426370502E+01    0.4258081317E+00    0.3984758615E+01    0.4256010056E+01    0.1395679712E+00    0    0
  111    1   12   12    0    0    0.5958498120E+00    0.7698386908E-01    0.1248668551E+01    0.1392246842E+01    0.1349640042E+00    0    0
  -16    1   10   10    0    0    0.1197742939E+02   -0.3029623032E+02   -0.1445597172E+02    0.3564120483E+02    0.1220703125E-03    0    0
  -13    1   10   10    0    0    0.1991800308E+01   -0.4099457264E+01   -0.1770888209E+01    0.4890810490E+01    0.1056589261E+00    0    0
   14    1   10   10    0    0    0.3843791187E+00   -0.9418451786E+00   -0.2118455321E+00    0.1039085269E+01    0.1057159898E-03    0    0
</event>
<event>
   20 9999    1    0.9119999695E+02    0.7565275169E-02    0.1185000000E+00
   11   -1    0    0    0    0    0.0000000000E+00    0.0000000000E+00    0.8000000000E+02    0.8000000000E+02    0.5109988851E-03    0    0
  -11   -1    0    0    0    0    0.0000000000E+00    0.0000000000E+00   -0.8000000000E+02    0.8000000000E+02    0.5109988851E-03    0    0
  -24    2    1    2    0    0    0.1446817279E+01   -0.4284128189E+01    0.7814362049E+01    0.7836360168E+02    0.7784178162E+02    0    0
   24    2    1    2    0    0   -0.1443899870E+01    0.4284192562E+01   -0.7810332775E+01    0.8163096619E+02    0.8113059998E+02    0    0
   22    1    1    2    0    0   -0.2916284604E-02   -0.6247834972E-04   -0.4093090538E-02    0.5026132800E-02    0.0000000000E+00    0    0
   22    1    1    2    0    0   -0.2469718765E-05   -0.5584484825E-05    0.2361993684E-03    0.2362782834E-03    0.0000000000E+00    0    0
   22    1    1    2    0    0    0.1261126840E-05    0.3742696663E-05   -0.1726303744E-03    0.1726755436E-03    0.0000000000E+00    0    0
   15    2    3    3    0    0    0.1877502060E+02    0.2751207733E+02   -0.1390556812E+02    0.3613777161E+02    0.1777029991E+01    0    0
  -16    1    3    3    0    0   -0.1732820320E+02   -0.3179620552E+02    0.2171993065E+02    0.4222583008E+02    0.0000000000E+00    0    0
   16    1    4    4    0    0   -0.3153124237E+02    0.2249254227E+02    0.1284629345E+02    0.4080638504E+02    0.0000000000E+00    0    0
  -15    2    4    4    0    0    0.3008734322E+02   -0.1820835114E+02   -0.2065662575E+02    0.4082457733E+02    0.1777029991E+01    0    0
   16    1    8    8    0    0    0.1114643288E+02    0.1680991554E+02   -0.7915755272E+01    0.2166738129E+02    0.0000000000E+00    0    0
 -323    2    8    8    0    0    0.7629326344E+01    0.1070324516E+02   -0.5990359783E+01    0.1447181129E+02    0.8847862482E+00    0    0
  111    1   13   13    0    0    0.3554284573E+01    0.4899152279E+01   -0.3046033621E+01    0.6777253628E+01    0.1349636763E+00    0    0
 -321    1   13   13    0    0    0.4075042725E+01    0.5804093838E+01   -0.2944327116E+01    0.7694559574E+01    0.4936670363E+00    0    0
  -16    1   11   11    0    0    0.4988102913E+01   -0.3060461998E+01   -0.3070444345E+01    0.6608723640E+01    0.4727763007E-03    0    0
   24    2   11   11    0    0    0.2510042381E+02   -0.1514860535E+02   -0.1758699417E+02    0.3421746063E+02    0.1421555400E+01    0    0
  321    1   17   17    0    0    0.1712713432E+02   -0.1022248077E+02   -0.1196605587E+02    0.2326516724E+02    0.4936669767E+00    0    0
  211    1   17   17    0    0    0.2267379284E+01   -0.1530887246E+01   -0.1754784346E+01    0.3253209591E+01    0.1395680457E+00    0    0
 -321    1   17   17    0    0    0.5705906391E+01   -0.3395234346E+01   -0.3866152287E+01    0.7699079514E+01    0.4936670065E+00    0    0
</event>
<event>
   21 9999    1    0.9119999695E+02    0.7565275169E-02    0.1185000000E+00
   11   -1    0    0    0    0    0.0000000000E+00    0.0000000000E+00    0.8000000000E+02    0.8000000000E+02    0.5109988851E-03    0    0
  -11   -1    0    0    0    0    0.0000000000E+00    0.0000000000E+00   -0.8000000000E+02    0.8000000000E+02    0.5109988851E-03    0    0
  -24    2    1    2    0    0   -0.1347646999E+02   -0.5409911633E+01   -0.3311579227E+01    0.7850580597E+02    0.7707991028E+02    0    0
   24    2    1    2    0    0    0.1347849941E+02    0.5424166203E+01    0.2624983788E+01    0.8080744171E+02    0.7944721985E+02    0    0
   22    1    1    2    0    0   -0.2029273193E-02   -0.1425456442E-01    0.6865954399E+00    0.6867464185E+00    0.0000000000E+00    0    0
   15    2    3    3    0    0   -0.1236402512E+02    0.8931977272E+01    0.3465533829E+02    0.3790513992E+02    0.1777029991E+01    0    0
  -16    1    3    3    0    0   -0.1112445712E+01   -0.1434188843E+02   -0.3796691895E+02    0.4060066986E+02    0.0000000000E+00    0    0
   16    1    4    4    0    0   -0.2947435760E+02    0.1968897057E+02    0.1613262296E+00    0.3544600677E+02    0.0000000000E+00    0    0
  -15    2    4    4    0    0    0.4295285797E+02   -0.1426480484E+02    0.2463657618E+01    0.4536143875E+02    0.1777029991E+01    0    0
   16    1    6    6    0    0   -0.2723562479E+01    0.2324439049E+01    0.8586093903E+01    0.9302785873E+01    0.4231391649E-03    0    0
  -24    2    6    6    0    0   -0.9640948296E+01    0.6607889652E+01    0.2607060814E+02    0.2860384750E+02    0.1375245690E+01    0    0
 -321    1   11   11    0    0   -0.6737143517E+01    0.4338716984E+01    0.1804454803E+02    0.1975001144E+02    0.4936670363E+00    0    0
 -211    1   11   11    0    0   -0.1497782111E+01    0.1374280214E+01    0.4940294743E+01    0.5343967915E+01    0.1395682395E+00    0    0
  211    1   11   11    0    0   -0.1406022668E+01    0.8948922157E+00    0.3085765362E+01    0.3509865999E+01    0.1395680457E+00    0    0
  -16    1    9    9    0    0    0.5972615719E+01   -0.2163995266E+01    0.3366945982E+00    0.6361475945E+01    0.5891206820E-04    0    0
   24    2    9    9    0    0    0.3698192978E+02   -0.1210136986E+02    0.2127059698E+01    0.3900174332E+02    0.1582851768E+01    0    0
  211    1   16   16    0    0    0.1376820946E+02   -0.4070078850E+01    0.1069540381E+01    0.1439765644E+02    0.1395676434E+00    0    0
  211    1   16   16    0    0    0.9440964699E+01   -0.3122125864E+01    0.4227351546E+00    0.9953776360E+01    0.1395679712E+00    0    0
  211    1   16   16    0    0    0.5141584873E+01   -0.1830621719E+01    0.4060231447E+00    0.5474614620E+01    0.1395679414E+00    0    0
 -211    1   16   16    0    0    0.3188060284E+01   -0.9961274266E+00    0.1215506271E+00    0.3345183372E+01    0.1395679861E+00    0    0
 -211    1   16   16    0    0    0.5443109512E+01   -0.2082416534E+01    0.1072105765E+00    0.5830512047E+01    0.1395679116E+00    0    0
</event>
<event>
   20 9999    1    0.9119999695E+02    0.7565275169E-02    0.1185000000E+00
   11   -1    0    0    0    0    0.0000000000E+00    0.0000000000E+00    0.8000000000E+02    0.8000000000E+02    0.5109988851E-03    0    0
  -11   -1    0    0    0    0    0.0000000000E+00    0.0000000000E+00   -0.8000000000E+02    0.8000000000E+02    0.5109988851E-03    0    0
  -24    2    1    2    0    0   -0.4964571953E+01   -0.1375223696E+00   -0.1512639761E+01    0.8019280243E+02    0.8002456665E+02    0    0
   24    2    1    2    0    0    0.4964571953E+01    0.1375223696E+00    0.1512639761E+01    0.7980719757E+02    0.7963814545E+02    0    0
   15    2    3    3    0    0   -0.2700670624E+02   -0.6964002609E+01    0.3008763313E+02    0.4106437683E+02    0.1777029991E+01    0    0
  -16    1    3    3    0    0    0.2204213524E+02    0.6826480389E+01   -0.3160027313E+02    0.3912842560E+02    0.0000000000E+00    0    0
   16    1    4    4    0    0    0.3643192291E+02   -0.9188300133E+01   -0.1791651535E+02    0.4162585068E+02    0.0000000000E+00    0    0
  -15    2    4    4    0    0   -0.3146735191E+02    0.9325822830E+01    0.1942915344E+02    0.3818134689E+02    0.1777029991E+01    0    0
   16    1    5    5    0    0   -0.1919205189E+00    0.4883880727E-02    0.3403145969E+00    0.3907323480E+00    0.6254242617E-03    0    0
  -24    2    5    5    0    0   -0.2681584740E+02   -0.6969160080E+01    0.2974850082E+02    0.4067525864E+02    0.1358106732E+01    0    0
 -321    1   10   10    0    0   -0.1148283672E+02   -0.3255026817E+01    0.1252462006E+02    0.1730781746E+02    0.4936669469E+00    0    0
  111    1   10   10    0    0   -0.4082922459E+01   -0.8661903143E+00    0.4565601826E+01    0.6187364101E+01    0.1349636316E+00    0    0
  310    1   10   10    0    0   -0.1125008965E+02   -0.2847943068E+01    0.1265828037E+02    0.1718007851E+02    0.4977199733E+00    0    0
  -16    1    8    8    0    0   -0.2689595461E+01    0.5634406209E+00    0.1636911511E+01    0.3198572874E+01    0.2617171558E-03    0    0
   24    2    8    8    0    0   -0.2877899551E+02    0.8762749672E+01    0.1779300880E+02    0.3498427582E+02    0.1513943434E+01    0    0
  211    1   15   15    0    0   -0.5228287220E+01    0.1536940813E+01    0.3234845400E+01    0.6338838577E+01    0.1395681649E+00    0    0
  211    1   15   15    0    0   -0.7202405453E+01    0.1956375003E+01    0.4274009705E+01    0.8601667404E+01    0.1395678967E+00    0    0
 -211    1   15   15    0    0   -0.9872735977E+01    0.3015544415E+01    0.6220905781E+01    0.1205336380E+02    0.1395680457E+00    0    0
  111    1   15   15    0    0   -0.2240980864E+01    0.6085424423E+00    0.1182863951E+01    0.2609540462E+01    0.1349639893E+00    0    0
  111    1   15   15    0    0   -0.4234585285E+01    0.1645345926E+01    0.2880381823E+01    0.5380863190E+01    0.1349636763E+00    0    0
</event>
<event>
   13 9999    1    0.9119999695E+02    0.7565275169E-02    0.1185000000E+00
   11   -1    0    0    0    0    0.0000000000E+00    0.0000000000E+00    0.8000000000E+02    0.8000000000E+02    0.5109988851E-03    0    0
  -11   -1    0    0    0    0    0.0000000000E+00    0.0000000000E+00   -0.8000000000E+02    0.8000000000E+02    0.5109988851E-03    0    0
  -24    2    1    2    0    0    0.1614286613E+02    0.1361294389E+01    0.3603788853E+01    0.8111904144E+02    0.7940318298E+02    0    0
   24    2    1    2    0    0   -0.1614286613E+02   -0.1361294389E+01   -0.3603788853E+01    0.7888095856E+02    0.7711532593E+02    0    0
   15    2    3    3    0    0    0.9879980087E+01   -0.1722393227E+02    0.3720699692E+02    0.4221132660E+02    0.1777029991E+01    0    0
  -16    1    3    3    0    0    0.6262885571E+01    0.1858522606E+02   -0.3360320663E+02    0.3890771103E+02    0.0000000000E+00    0    0
   16    1    4    4    0    0    0.2022202730E+01   -0.2817665863E+02   -0.2685025215E+02    0.3897370148E+02    0.0000000000E+00    0    0
  -15    2    4    4    0    0   -0.1816506767E+02    0.2681536484E+02    0.2324646378E+02    0.3990726089E+02    0.1777029991E+01    0    0
   16    1    5    5    0    0    0.1660013676E+01   -0.3860868692E+01    0.7823387623E+01    0.8880728722E+01    0.2024307178E-03    0    0
   13    1    5    5    0    0    0.6386960983E+01   -0.1029759979E+02    0.2369035912E+02    0.2660973740E+02    0.1056588888E+00    0    0
  -14    1    5    5    0    0    0.1833394766E+01   -0.3066141367E+01    0.5694713593E+01    0.6722523689E+01    0.0000000000E+00    0    0
  -16    1    8    8    0    0   -0.1385949135E+02    0.1959498405E+02    0.1794125938E+02    0.2996560860E+02    0.2990099892E-03    0    0
  211    1    8    8    0    0   -0.4306292534E+01    0.7221437454E+01    0.5306120396E+01    0.9943223953E+01    0.1395676434E+00    0    0
</event>
<event>
   18 9999    1    0.9119999695E+02    0.7565275169E-02    0.1185000000E+00
   11   -1    0    0    0    0    0.0000000000E+00    0.0000000000E+00    0.8000000000E+02    0.8000000000E+02    0.5109988851E-03    0    0
  -11   -1    0    0    0    0    0.0000000000E+00    0.0000000000E+00   -0.8000000000E+02    0.8000000000E+02    0.5109988851E-03    0    0
  -24    2    1    2    0    0   -0.7195293427E+01    0.6973712444E+00    0.2849563026E+02    0.8582259369E+02    0.8063037872E+02    0    0
   24    2    1    2    0    0    0.7195293427E+01   -0.6973712444E+00   -0.2849563026E+02    0.7417740631E+02    0.6810306549E+02    0    0
   15    2    3    3    0    0    0.2786180305E+02   -0.5289713383E+01   -0.1293517876E+02    0.3122079086E+02    0.1777029991E+01    0    0
  -16    1    3    3    0    0   -0.3505709457E+02    0.5987084389E+01    0.4143080902E+02    0.5460180664E+02    0.0000000000E+00    0    0
   16    1    4    4    0    0    0.8125820160E+01   -0.3312978745E+02   -0.5948071003E+01    0.3462645340E+02    0.0000000000E+00    0    0
  -15    2    4    4    0    0   -0.9305265546E+00    0.3243241501E+02   -0.2254755974E+02    0.3955094910E+02    0.1777029991E+01    0    0
   16    1    5    5    0    0    0.8978144646E+01   -0.1858895183E+01   -0.4922884941E+01    0.1040660191E+02    0.1726334885E-03    0    0
 -213    2    5    5    0    0    0.1888475609E+02   -0.3431026220E+01   -0.8012803078E+01    0.2081541824E+02    0.8189675212E+00    0    0
 -211    1   10   10    0    0    0.1699251747E+02   -0.2975445986E+01   -0.7005702496E+01    0.1861983490E+02    0.1395681798E+00    0    0
  111    1   10   10    0    0    0.1892237306E+01   -0.4555802047E+00   -0.1007100224E+01    0.2195582151E+01    0.1349641085E+00    0    0
  -16    1    8    8    0    0   -0.8953487873E+00    0.1722277451E+02   -0.1232806015E+02    0.2119921303E+02    0.3662109375E-03    0    0
   24    2    8    8    0    0   -0.3521435335E-01    0.1521091652E+02   -0.1022038651E+02    0.1835329247E+02    0.1006891370E+01    0    0
  111    1   14   14    0    0   -0.4412389919E-01    0.1977251530E+01   -0.1567018151E+01    0.2526901722E+01    0.1349644512E+00    0    0
  111    1   14   14    0    0   -0.1126150042E+00    0.5127597332E+01   -0.3442642450E+01    0.6178587437E+01    0.1349640340E+00    0    0
  111    1   14   14    0    0   -0.9254114330E-01    0.1805369139E+01   -0.1101245522E+01    0.2121055841E+01    0.1349640191E+00    0    0
  211    1   14   14    0    0    0.2140657753E+00    0.6300697803E+01   -0.4109479904E+01    0.7526746750E+01    0.1395678967E+00    0    0
</event>
<event>
   17 9999    1    0.9119999695E+02    0.7565275169E-02    0.1185000000E+00
   11   -1    0    0    0    0    0.0000000000E+00    0.0000000000E+00    0.8000000000E+02    0.8000000000E+02    0.5109988851E-03    0    0
  -11   -1    0    0    0    0    0.0000000000E+00    0.0000000000E+00   -0.8000000000E+02    0.8000000000E+02    0.5109988851E-03    0    0
  -24    2    1    2    0    0    0.1328771114E+01   -0.2993816757E+02    0.1727543831E+02    0.8826142883E+02    0.8120085907E+02    0    0
   24    2    1    2    0    0   -0.1328771114E+01    0.2993816757E+02   -0.1727016830E+02    0.7173329926E+02    0.6284384155E+02    0    0
   22    1    1    2    0    0   -0.7104707578E-07   -0.1638432963E-06   -0.5269338377E-02    0.5269338377E-02    0.0000000000E+00    0    0
   15    2    3    3    0    0    0.2131553650E+02   -0.5129420280E+01    0.4234841156E+02    0.4772010803E+02    0.1777029991E+01    0    0
  -16    1    3    3    0    0   -0.1998676491E+02   -0.2480874634E+02   -0.2507297325E+02    0.4054132080E+02    0.0000000000E+00    0    0
   16    1    4    4    0    0   -0.3439529896E+01    0.2829059982E+02   -0.3981338882E+02    0.4896217346E+02    0.0000000000E+00    0    0
  -15    2    4    4    0    0    0.2110758781E+01    0.1647566915E+01    0.2254321861E+02    0.2277112961E+02    0.1777029991E+01    0    0
   16    1    6    6    0    0    0.1632074118E+01   -0.4560453594E+00    0.2878195524E+01    0.3340007782E+01    0.4628219758E-03    0    0
  -24    2    6    6    0    0    0.1968430138E+02   -0.4673576832E+01    0.3947188187E+02    0.4438197708E+02    0.1554526329E+01    0    0
 -321    1   11   11    0    0    0.5769972801E+01   -0.1445746660E+01    0.1230101395E+02    0.1367265224E+02    0.4936671257E+00    0    0
 -211    1   11   11    0    0    0.1131109953E+01   -0.2945756614E+00    0.2554013014E+01    0.2812231541E+01    0.1395678967E+00    0    0
  321    1   11   11    0    0    0.1278321838E+02   -0.2933254480E+01    0.2461685371E+02    0.2789709473E+02    0.4936670363E+00    0    0
  -16    1    9    9    0    0    0.8724624515E+00    0.5087634921E+00    0.6096675396E+01    0.6179764271E+01    0.8682103362E-04    0    0
  -11    1    9    9    0    0    0.1240225792E+01    0.2142044306E+00    0.8965821266E+01    0.9053728104E+01    0.4882812500E-03    0    0
   12    1    9    9    0    0   -0.1846287632E-02    0.9246639013E+00    0.7481608868E+01    0.7538532734E+01    0.1726334885E-03    0    0
</event>
<event>
   19 9999    1    0.9119999695E+02    0.7565275169E-02    0.1185000000E+00
   11   -1    0    0    0    0    0.0000000000E+00    0.0000000000E+00    0.8000000000E+02    0.8000000000E+02    0.5109988851E-03    0    0
  -11   -1    0    0    0    0    0.0000000000E+00    0.0000000000E+00   -0.8000000000E+02    0.8000000000E+02    0.5109988851E-03    0    0
  -24    2    1    2    0    0   -0.1512902927E+02    0.4278946400E+01   -0.1125824070E+02    0.7731125641E+02    0.7485375977E+02    0    0
   24    2    1    2    0    0    0.1540205002E+02   -0.4282014370E+01    0.1150345135E+02    0.8232176208E+02    0.7993112183E+02    0    0
   22    1    1    2    0    0   -0.2730210721E+00    0.3068192163E-02   -0.2452106774E+00    0.3669852912E+00    0.0000000000E+00    0    0
   15    2    3    3    0    0   -0.3358853912E+02   -0.2366699219E+02    0.2269777060E+01    0.4119012070E+02    0.1777029991E+01    0    0
  -16    1    3    3    0    0    0.1845950890E+02    0.2794593811E+02   -0.1352801800E+02    0.3612113190E+02    0.0000000000E+00    0    0
   16    1    4    4    0    0    0.4610467148E+02   -0.1078938198E+02    0.1719491196E+02    0.5037575150E+02    0.0000000000E+00    0    0
  -15    2    4    4    0    0   -0.3070262146E+02    0.6507367611E+01   -0.5691459656E+01    0.3194600677E+02    0.1777029991E+01    0    0
   16    1    6    6    0    0   -0.1620648193E+02   -0.1120419025E+02    0.9850937128E+00    0.1972699547E+02    0.5701154005E-03    0    0
*****    2    6    6    0    0   -0.1738337517E+02   -0.1246373272E+02    0.1284772396E+01    0.2146474457E+02    0.1248303652E+01    0    0
 -211    1   11   11    0    0   -0.9136041999E+00   -0.7807428837E+00   -0.7551249117E-01    0.1212193727E+01    0.1395684332E+00    0    0
 -211    1   11   11    0    0   -0.1893858075E+01   -0.1374199867E+01   -0.3801878169E-01    0.2344365120E+01    0.1395680308E+00    0    0
  211    1   11   11    0    0   -0.1457591343E+02   -0.1030879021E+02    0.1398303747E+01    0.1790818596E+02    0.1395677477E+00    0    0
  -16    1    9    9    0    0   -0.2286744595E+01    0.1341845095E+00   -0.4937740266E+00    0.2343292236E+01    0.4358782026E-03    0    0
   24    2    9    9    0    0   -0.2841708755E+02    0.6373439312E+01   -0.5197909832E+01    0.2960397339E+02    0.1106985331E+01    0    0
  211    1   16   16    0    0   -0.3427710295E+01    0.5716727972E+00   -0.5815862417E+00    0.3526149273E+01    0.1395680308E+00    0    0
  111    1   16   16    0    0   -0.2250400925E+02    0.5447016239E+01   -0.4239042759E+01    0.2353907776E+02    0.1349641085E+00    0    0
   22    1   16   16    0    0   -0.2485368967E+01    0.3547506630E+00   -0.3772810996E+00    0.2538749218E+01    0.1364787604E-03    0    0
</event>
<event>
   19 9999    1    0.9119999695E+02    0.7565275169E-02    0.1185000000E+00
   11   -1    0    0    0    0    0.0000000000E+00    0.0000000000E+00    0.8000000000E+02    0.8000000000E+02    0.5109988851E-03    0    0
  -11   -1    0    0    0    0    0.0000000000E+00    0.0000000000E+00   -0.8000000000E+02    0.8000000000E+02    0.5109988851E-03    0    0
  -24    2    1    2    0    0    0.5336506367E+01   -0.2109389496E+02    0.9662202835E+01    0.8504992676E+02    0.8164987183E+02    0    0
   24    2    1    2    0    0   -0.5336513519E+01    0.2109390640E+02   -0.9696361542E+01    0.7491591644E+02    0.7102776337E+02    0    0
   22    1    1    2    0    0    0.7166316209E-05   -0.1141451594E-04    0.3415895253E-01    0.3415895626E-01    0.0000000000E+00    0    0
   15    2    3    3    0    0    0.2596829796E+02   -0.1213817120E+02    0.3878000641E+02    0.4825696182E+02    0.1777029991E+01    0    0
  -16    1    3    3    0    0   -0.2063179016E+02   -0.8955723763E+01   -0.2911780357E+02    0.3679296494E+02    0.0000000000E+00    0    0
   16    1    4    4    0    0   -0.2695732117E+02    0.3793791199E+02   -0.9231089592E+01    0.4744676590E+02    0.0000000000E+00    0    0
  -15    2    4    4    0    0    0.2162080765E+02   -0.1684400749E+02   -0.4652717113E+00    0.2746915054E+02    0.1777029991E+01    0    0
   16    1    6    6    0    0    0.1276782900E+00   -0.1007192060E+00    0.1081956849E+00    0.1953272223E+00    0.5583549500E-03    0    0
  -24    2    6    6    0    0    0.2584164047E+02   -0.1203792953E+02    0.3867333603E+02    0.4806352997E+02    0.1331976533E+01    0    0
  111    1   11   11    0    0    0.1217032814E+02   -0.5727831364E+01    0.1797937202E+02    0.2245442009E+02    0.1349634379E+00    0    0
  111    1   11   11    0    0    0.6456859112E+01   -0.2656485081E+01    0.9710072517E+01    0.1196042061E+02    0.1349642575E+00    0    0
 -321    1   11   11    0    0    0.7214453220E+01   -0.3653613091E+01    0.1098389053E+02    0.1364869118E+02    0.4936670363E+00    0    0
  -16    1    9    9    0    0    0.5522381306E+01   -0.4161810398E+01    0.6724602729E-01    0.6915337086E+01    0.2589502255E-03    0    0
   24    2    9    9    0    0    0.1609927750E+02   -0.1268285942E+02   -0.5325360298E+00    0.2055489540E+02    0.1475952387E+01    0    0
  221    1   16   16    0    0    0.5724164963E+01   -0.4863946915E+01   -0.5069546700E+00    0.7548657417E+01    0.5488000512E+00    0    0
  211    1   16   16    0    0    0.1957909107E+01   -0.1236634612E+01    0.1593427546E-01    0.2320001364E+01    0.1395680159E+00    0    0
  111    1   16   16    0    0    0.8417203903E+01   -0.6582277775E+01   -0.4151568562E-01    0.1068623543E+02    0.1349639148E+00    0    0
</event>
<event>
   18 9999    1    0.9119999695E+02    0.7565275169E-02    0.1185000000E+00
   11   -1    0    0    0    0    0.0000000000E+00    0.0000000000E+00    0.8000000000E+02    0.8000000000E+02    0.5109988851E-03    0    0
  -11   -1    0    0    0    0    0.0000000000E+00    0.0000000000E+00   -0.8000000000E+02    0.8000000000E+02    0.5109988851E-03    0    0
  -24    2    1    2    0    0   -0.4442535639E+00   -0.1074665833E+02    0.1348620701E+02    0.8153173828E+02    0.7968599701E+02    0    0
   24    2    1    2    0    0    0.4442535639E+00    0.1074665833E+02   -0.1348620701E+02    0.7846826172E+02    0.7654869843E+02    0    0
   15    2    3    3    0    0    0.1534788895E+02    0.2310513496E+02    0.2981770515E+02    0.4076344299E+02    0.1777029991E+01    0    0
  -16    1    3    3    0    0   -0.1579214191E+02   -0.3385179520E+02   -0.1633149910E+02    0.4076829147E+02    0.0000000000E+00    0    0
   16    1    4    4    0    0   -0.3240613937E+01    0.4045002365E+02    0.8281630516E+01    0.4141607666E+02    0.0000000000E+00    0    0
  -15    2    4    4    0    0    0.3684867620E+01   -0.2970336533E+02   -0.2176783752E+02    0.3705218887E+02    0.1777029991E+01    0    0
   16    1    5    5    0    0    0.8752214909E+00    0.1480487466E+01    0.1487199903E+01    0.2273679733E+01    0.3112194536E-03    0    0
  -24    2    5    5    0    0    0.1447327232E+02    0.2162555885E+02    0.2833168030E+02    0.3849137115E+02    0.1327068448E+01    0    0
 -211    1   10   10    0    0    0.7315565944E+00    0.1393081427E+01    0.1531202197E+01    0.2199979782E+01    0.1395684034E+00    0    0
  111    1   10   10    0    0    0.1275617123E+02    0.1895230484E+02    0.2526709747E+02    0.3406397247E+02    0.1349640042E+00    0    0
   22    1   10   10    0    0    0.9855436683E+00    0.1280172467E+01    0.1533380270E+01    0.2227418423E+01    0.1614838402E-03    0    0
  -16    1    8    8    0    0    0.6778045297E+00   -0.5922183514E+01   -0.4181253910E+01    0.7281109810E+01    0.6651151925E-03    0    0
   24    2    8    8    0    0    0.3007207870E+01   -0.2378234863E+02   -0.1758743858E+02    0.2977253532E+02    0.1562831283E+01    0    0
  130    1   15   15    0    0    0.1108867288E+01   -0.8179297447E+01   -0.6493779182E+01    0.1051415157E+02    0.4977200925E+00    0    0
  211    1   15   15    0    0    0.6852446198E+00   -0.3777076960E+01   -0.2562052727E+01    0.4617300510E+01    0.1395680159E+00    0    0
  130    1   15   15    0    0    0.1213095784E+01   -0.1182597160E+02   -0.8531604767E+01    0.1464107990E+02    0.4977199435E+00    0    0
</event>
<event>
   20 9999    1    0.9119999695E+02    0.7565275169E-02    0.1185000000E+00
   11   -1    0    0    0    0    0.0000000000E+00    0.0000000000E+00    0.8000000000E+02    0.8000000000E+02    0.5109988851E-03    0    0
  -11   -1    0    0    0    0    0.0000000000E+00    0.0000000000E+00   -0.8000000000E+02    0.8000000000E+02    0.5109988851E-03    0    0
  -24    2    1    2    0    0    0.6750512123E+01    0.1968540072E+01    0.1123905277E+02    0.8107002258E+02    0.7997866821E+02    0    0
   24    2    1    2    0    0   -0.6750502586E+01   -0.1968540072E+01   -0.1125082016E+02    0.7891821289E+02    0.7779497528E+02    0    0
   22    1    1    2    0    0   -0.1016118949E-04    0.8431790775E-05    0.9268794209E-02    0.9268803522E-02    0.0000000000E+00    0    0
   22    1    1    2    0    0    0.3981739383E-06   -0.8376264304E-05    0.2498762216E-02    0.2498776186E-02    0.0000000000E+00    0    0
   15    2    3    3    0    0   -0.2997549248E+02   -0.2056432152E+02   -0.5498389006E+00    0.3639892197E+02    0.1777029991E+01    0    0
  -16    1    3    3    0    0    0.3672600555E+02    0.2253286171E+02    0.1178889179E+02    0.4467110062E+02    0.0000000000E+00    0    0
   16    1    4    4    0    0    0.5373218536E+01   -0.3112051010E+02   -0.2880993462E+02    0.4274774933E+02    0.0000000000E+00    0    0
  -15    2    4    4    0    0   -0.1212372112E+02    0.2915196991E+02    0.1755911446E+02    0.3617045975E+02    0.1777029991E+01    0    0
   16    1    7    7    0    0   -0.2431629658E+01   -0.1476701736E+01    0.4550836608E-01    0.2845266581E+01    0.3836000105E-03    0    0
  -24    2    7    7    0    0   -0.2754504204E+02   -0.1908843040E+02   -0.5953689218E+00    0.3355508804E+02    0.1578627229E+01    0    0
 -211    1   12   12    0    0   -0.4942576885E+01   -0.3273129702E+01    0.3531122208E-01    0.5929854393E+01    0.1395676285E+00    0    0
 -211    1   12   12    0    0   -0.4150832176E+01   -0.3174538374E+01    0.1451128069E-01    0.5227503300E+01    0.1395679414E+00    0    0
  211    1   12   12    0    0   -0.3218237400E+01   -0.2042291403E+01    0.1160234883E+00    0.3815881014E+01    0.1395679861E+00    0    0
  111    1   12   12    0    0   -0.2415571928E+01   -0.1498897195E+01   -0.1523965150E+00    0.2850108862E+01    0.1349640042E+00    0    0
  111    1   12   12    0    0   -0.1281782246E+02   -0.9099572182E+01   -0.6088184118E+00    0.1573174000E+02    0.1349636167E+00    0    0
  -16    1   10   10    0    0   -0.5826207399E+00    0.1143606067E+01    0.9750515819E+00    0.1611833572E+01    0.8631674427E-04    0    0
  -13    1   10   10    0    0   -0.1136275387E+02    0.2735066605E+02    0.1600932503E+02    0.3366720581E+02    0.1056591049E+00    0    0
   14    1   10   10    0    0   -0.1788236648E+00    0.6588455439E+00    0.5754298568E+00    0.8928465247E+00    0.9650505672E-04    0    0
</event>
<event>
   23 9999    1    0.9119999695E+02    0.7565275169E-02    0.1185000000E+00
   11   -1    0    0    0    0    0.0000000000E+00    0.0000000000E+00    0.8000000000E+02    0.8000000000E+02    0.5109988851E-03    0    0
  -11   -1    0    0    0    0    0.0000000000E+00    0.0000000000E+00   -0.8000000000E+02    0.8000000000E+02    0.5109988851E-03    0    0
  -24    2    1    2    0    0    0.1386796951E+01    0.9278493881E+01   -0.2282012367E+02    0.7612046814E+02    0.7201079559E+02    0    0
   24    2    1    2    0    0   -0.1428024054E+01   -0.9305338860E+01    0.2258722496E+02    0.8362676239E+02    0.7996639252E+02    0    0
   22    1    1    2    0    0    0.3122151643E-01    0.1878954098E-01    0.2366094291E+00    0.2393989414E+00    0.0000000000E+00    0    0
   22    1    1    2    0    0    0.1000560075E-01    0.8055740036E-02   -0.3710857593E-02    0.1337076910E-01    0.0000000000E+00    0    0
   15    2    3    3    0    0   -0.3799231768E+01   -0.2124571800E+02    0.1566446781E+02    0.2672729111E+02    0.1777029991E+01    0    0
  -16    1    3    3    0    0    0.5186028481E+01    0.3052421188E+02   -0.3848459244E+02    0.4939318085E+02    0.0000000000E+00    0    0
   16    1    4    4    0    0    0.3391558075E+02   -0.1401459980E+02    0.2936302948E+02    0.4699854660E+02    0.0000000000E+00    0    0
  -15    2    4    4    0    0   -0.3374837494E+02    0.5302691460E+01   -0.5898622513E+01    0.3471343613E+02    0.1777029991E+01    0    0
   22    1    4    4    0    0   -0.1595230222E+01   -0.5934301615E+00   -0.8771825433E+00    0.1914776325E+01    0.0000000000E+00    0    0
   16    1    7    7    0    0   -0.3979511559E+00   -0.2903210163E+01    0.1817926645E+01    0.3448456526E+01    0.0000000000E+00    0    0
  -24    2    7    7    0    0   -0.3401429892E+01   -0.1834334373E+02    0.1384715748E+02    0.2327988625E+02    0.1470150352E+01    0    0
 -211    1   13   13    0    0   -0.2054701298E+00   -0.1790531039E+01    0.1538980961E+01    0.2374059916E+01    0.1395679116E+00    0    0
 -211    1   13   13    0    0   -0.5637707710E+00   -0.4149405479E+01    0.3095647335E+01    0.5209406376E+01    0.1395679563E+00    0    0
 -211    1   13   13    0    0   -0.1772075444E+00   -0.7557124496E+00    0.7181962132E+00    0.1066671848E+01    0.1395679265E+00    0    0
  211    1   13   13    0    0   -0.1820400238E+01   -0.8001007080E+01    0.5798987865E+01    0.1004876709E+02    0.1395678669E+00    0    0
  211    1   13   13    0    0   -0.6345812678E+00   -0.3646688223E+01    0.2695344925E+01    0.4580981255E+01    0.1395679712E+00    0    0
  -16    1   10   10    0    0   -0.1031788063E+02    0.1695309281E+01   -0.1803313494E+01    0.1061059189E+02    0.5305721425E-03    0    0
   24    2   10   10    0    0   -0.2343180847E+02    0.3607589245E+01   -0.4095538139E+01    0.2410419846E+02    0.1474669218E+01    0    0
  221    1   20   20    0    0   -0.1436577797E+02    0.2303450346E+01   -0.2821009874E+01    0.1483039665E+02    0.5487999320E+00    0    0
  211    1   20   20    0    0   -0.4294768810E+01    0.2955783606E+00   -0.6131477952E+00    0.4350612640E+01    0.1395679414E+00    0    0
  111    1   20   20    0    0   -0.4771261692E+01    0.1008560061E+01   -0.6613809466E+00    0.4923186779E+01    0.1349640340E+00    0    0
</event>
<event>
   17 9999    1    0.9119999695E+02    0.7565275169E-02    0.1185000000E+00
   11   -1    0    0    0    0    0.0000000000E+00    0.0000000000E+00    0.8000000000E+02    0.8000000000E+02    0.5109988851E-03    0    0
  -11   -1    0    0    0    0    0.0000000000E+00    0.0000000000E+00   -0.8000000000E+02    0.8000000000E+02    0.5109988851E-03    0    0
  -24    2    1    2    0    0   -0.1277576447E+01   -0.4928864002E+01   -0.4561409473E+01    0.8005657959E+02    0.7976417542E+02    0    0
   24    2    1    2    0    0    0.1277576447E+01    0.4928864002E+01    0.4561409473E+01    0.7994342041E+02    0.7965059662E+02    0    0
   15    2    3    3    0    0    0.2334979248E+02    0.1011053658E+02    0.2710167694E+02    0.3721685791E+02    0.1777029991E+01    0    0
  -16    1    3    3    0    0   -0.2462736893E+02   -0.1503940010E+02   -0.3166308594E+02    0.4283972168E+02    0.0000000000E+00    0    0
   16    1    4    4    0    0   -0.1118748760E+02   -0.2992557716E+02   -0.1788778877E+02    0.3661520386E+02    0.0000000000E+00    0    0
  -15    2    4    4    0    0    0.1246506405E+02    0.3485444260E+02    0.2244919968E+02    0.4332821655E+02    0.1777029991E+01    0    0
   16    1    5    5    0    0    0.1036540890E+02    0.4720493317E+01    0.1175863552E+02    0.1637040901E+02    0.8631674427E-04    0    0
  -24    2    5    5    0    0    0.1298530293E+02    0.5390440941E+01    0.1534410858E+02    0.2084791565E+02    0.1232447743E+01    0    0
 -321    1   10   10    0    0    0.3623345852E+01    0.1253114820E+01    0.4283302784E+01    0.5769690037E+01    0.4936671257E+00    0    0
  310    1   10   10    0    0    0.9361956596E+01    0.4137325764E+01    0.1106080532E+02    0.1507822323E+02    0.4977200329E+00    0    0
  -16    1    8    8    0    0    0.6236362457E+01    0.1666891479E+02    0.1137520027E+02    0.2112203026E+02    0.5459150416E-03    0    0
20213    2    8    8    0    0    0.6229191303E+01    0.1818689537E+02    0.1107488060E+02    0.2220788765E+02    0.9855623841E+00    0    0
  111    1   14   14    0    0    0.1121126056E+01    0.3573206663E+01    0.2466404438E+01    0.4486211777E+01    0.1349640042E+00    0    0
  111    1   14   14    0    0    0.3402169228E+01    0.9079412460E+01    0.5466649532E+01    0.1113162041E+02    0.1349638104E+00    0    0
  211    1   14   14    0    0    0.1705896616E+01    0.5534276485E+01    0.3141827345E+01    0.6590057373E+01    0.1395679116E+00    0    0
</event>
<event>
   20 9999    1    0.9119999695E+02    0.7565275169E-02    0.1185000000E+00
   11   -1    0    0    0    0    0.0000000000E+00    0.0000000000E+00    0.8000000000E+02    0.8000000000E+02    0.5109988851E-03    0    0
  -11   -1    0    0    0    0    0.0000000000E+00    0.0000000000E+00   -0.8000000000E+02    0.8000000000E+02    0.5109988851E-03    0    0
  -24    2    1    2    0    0    0.6195384979E+01   -0.3912592173E+01   -0.8690733910E+01    0.8137209320E+02    0.8057417297E+02    0    0
   24    2    1    2    0    0   -0.6195384979E+01    0.3912592173E+01    0.8690733910E+01    0.7862790680E+02    0.7780184937E+02    0    0
   15    2    3    3    0    0    0.3889114141E+01    0.8762648582E+01    0.3473398590E+02    0.3607654190E+02    0.1777029991E+01    0    0
  -16    1    3    3    0    0    0.2306270599E+01   -0.1267524052E+02   -0.4342472076E+02    0.4529555130E+02    0.0000000000E+00    0    0
   16    1    4    4    0    0    0.1305099773E+02    0.3726337051E+02    0.6543929577E+01    0.4002137375E+02    0.0000000000E+00    0    0
  -15    2    4    4    0    0   -0.1924638176E+02   -0.3335078049E+02    0.2146804094E+01    0.3860653305E+02    0.1777029991E+01    0    0
   16    1    5    5    0    0    0.1300495625E+01    0.3867739677E+01    0.1514376450E+02    0.1568388653E+02    0.3754619684E-03    0    0
  -24    2    5    5    0    0    0.2588772058E+01    0.4895254135E+01    0.1959159279E+02    0.2039407730E+02    0.1192764759E+01    0    0
 -211    1   10   10    0    0    0.4295781627E-01    0.1177646816E+00    0.8508325219E+00    0.8712686300E+00    0.1395679563E+00    0    0
 -211    1   10   10    0    0    0.7265422493E-01    0.3529151082E+00    0.1437332511E+01    0.1488365531E+01    0.1395681053E+00    0    0
  211    1   10   10    0    0    0.1806735158E+01    0.3402883053E+01    0.1312967396E+02    0.1368399525E+02    0.1395680606E+00    0    0
  111    1   10   10    0    0    0.6664244533E+00    0.1021690488E+01    0.4173750401E+01    0.4350446224E+01    0.1349640191E+00    0    0
  -16    1    8    8    0    0   -0.7480498314E+01   -0.1341073895E+02    0.1009548903E+01    0.1538911819E+02    0.2553283703E-03    0    0
   24    2    8    8    0    0   -0.1176664162E+02   -0.1994135475E+02    0.1137339592E+01    0.2321893501E+02    0.1309162378E+01    0    0
  211    1   16   16    0    0   -0.2309430987E+00   -0.4440707266E+00    0.8334972709E-01    0.5262698531E+00    0.1395679861E+00    0    0
  211    1   16   16    0    0   -0.5093594074E+01   -0.8432962418E+01    0.3674710393E+00    0.9859719276E+01    0.1395679116E+00    0    0
 -211    1   16   16    0    0   -0.6011232853E+01   -0.1025347900E+02    0.6313709617E+00    0.1190322876E+02    0.1395679563E+00    0    0
  111    1   16   16    0    0   -0.4308727086E+00   -0.8108441830E+00    0.5514797568E-01    0.9297183156E+00    0.1349639446E+00    0    0
</event>
<event>
   24 9999    1    0.9119999695E+02    0.7565275169E-02    0.1185000000E+00
   11   -1    0    0    0    0    0.0000000000E+00    0.0000000000E+00    0.8000000000E+02    0.8000000000E+02    0.5109988851E-03    0    0
  -11   -1    0    0    0    0    0.0000000000E+00    0.0000000000E+00   -0.8000000000E+02    0.8000000000E+02    0.5109988851E-03    0    0
  -24    2    1    2    0    0    0.2502828836E+01   -0.4523179054E+01    0.1749246216E+02    0.7570615387E+02    0.7347592926E+02    0    0
   24    2    1    2    0    0   -0.2500525475E+01    0.4517074108E+01   -0.1404944801E+02    0.8085041046E+02    0.7945278931E+02    0    0
   22    1    1    2    0    0   -0.2293329919E-02    0.6092281081E-02   -0.3443214417E+01    0.3443220615E+01    0.0000000000E+00    0    0
   22    1    1    2    0    0    0.3547783578E-07    0.6736789260E-07    0.1931438310E-03    0.1931438455E-03    0.0000000000E+00    0    0
   15    2    3    3    0    0    0.2468854904E+02   -0.4628556073E+00    0.3791355515E+02    0.4528061676E+02    0.1777029991E+01    0    0
  -16    1    3    3    0    0   -0.2218572044E+02   -0.4060323715E+01   -0.2042109299E+02    0.3042553902E+02    0.0000000000E+00    0    0
   16    1    4    4    0    0    0.3669600296E+02    0.2648376226E+01    0.5111874104E+01    0.3714487457E+02    0.0000000000E+00    0    0
  -15    2    4    4    0    0   -0.3919652939E+02    0.1868697882E+01   -0.1916132164E+02    0.4370553589E+02    0.1777029991E+01    0    0
   16    1    7    7    0    0    0.5026189327E+01    0.2973132730E+00    0.8323298454E+01    0.9727706909E+01    0.5854286719E-03    0    0
  -24    2    7    7    0    0    0.1966333008E+02   -0.7601870894E+00    0.2959174538E+02    0.3555468750E+02    0.1113561153E+01    0    0
  111    1   12   12    0    0    0.7520587921E+01   -0.9644088149E-01    0.1101255798E+02    0.1333653641E+02    0.1349639297E+00    0    0
  111    1   12   12    0    0    0.3133178949E+01   -0.1278761923E+00    0.4363834858E+01    0.5375354290E+01    0.1349635869E+00    0    0
  111    1   12   12    0    0    0.5629349709E+01   -0.2160967588E+00    0.8815363884E+01    0.1046255875E+02    0.1349640340E+00    0    0
 -211    1   12   12    0    0    0.3380216599E+01   -0.3197734058E+00    0.5399992943E+01    0.6380244732E+01    0.1395680457E+00    0    0
  -16    1   10   10    0    0   -0.2875225544E+01    0.7021892816E-01   -0.1417561412E+01    0.3206451893E+01    0.1907348633E-04    0    0
   24    2   10   10    0    0   -0.3632284546E+02    0.1798552513E+01   -0.1774451447E+02    0.4050080490E+02    0.1692198515E+01    0    0
  211    1   18   18    0    0   -0.3205065012E+01    0.1980314963E-01   -0.1605788827E+01    0.3587599516E+01    0.1395680159E+00    0    0
  211    1   18   18    0    0   -0.1039945316E+02    0.4631946683E+00   -0.5089420319E+01    0.1158813477E+02    0.1395680308E+00    0    0
  211    1   18   18    0    0   -0.1870015502E+01    0.1238202378E+00   -0.9330151081E+00    0.2098162413E+01    0.1395680010E+00    0    0
 -211    1   18   18    0    0   -0.8244056702E+01    0.1700208187E+00   -0.3978388548E+01    0.9156441689E+01    0.1395680010E+00    0    0
 -211    1   18   18    0    0   -0.5362398624E+01    0.1811052263E+00   -0.2475051165E+01    0.5910454750E+01    0.1395680010E+00    0    0
  111    1   18   18    0    0   -0.7241857052E+01    0.8406083584E+00   -0.3662850380E+01    0.8160012245E+01    0.1349639893E+00    0    0
</event>
<event>
   16 9999    1    0.9119999695E+02    0.7565275169E-02    0.1185000000E+00
   11   -1    0    0    0    0    0.0000000000E+00    0.0000000000E+00    0.8000000000E+02    0.8000000000E+02    0.5109988851E-03    0    0
  -11   -1    0    0    0    0    0.0000000000E+00    0.0000000000E+00   -0.8000000000E+02    0.8000000000E+02    0.5109988851E-03    0    0
  -24    2    1    2    0    0    0.4240977287E+01   -0.5844287872E+01    0.3271809101E+01    0.7800033569E+02    0.7759642792E+02    0    0
   24    2    1    2    0    0   -0.4240977287E+01    0.5844287872E+01   -0.3271809101E+01    0.8199966431E+02    0.8161555481E+02    0    0
   15    2    3    3    0    0   -0.1874964714E+02   -0.2805119324E+02   -0.1926152420E+02    0.3889193726E+02    0.1777029991E+01    0    0
  -16    1    3    3    0    0    0.2299062538E+02    0.2220690536E+02    0.2253333282E+02    0.3910839462E+02    0.0000000000E+00    0    0
   16    1    4    4    0    0   -0.3577314138E+01    0.8691644669E+01    0.3873232269E+02    0.3985642624E+02    0.0000000000E+00    0    0
  -15    2    4    4    0    0   -0.6636630297E+00   -0.2847356319E+01   -0.4200413132E+02    0.4214324188E+02    0.1777029991E+01    0    0
   16    1    5    5    0    0   -0.1104945898E+01   -0.2208779812E+01   -0.1532193422E+01    0.2906411886E+01    0.1726334885E-03    0    0
  -24    2    5    5    0    0   -0.1764544106E+02   -0.2584351730E+02   -0.1773008919E+02    0.3598705673E+02    0.1209669232E+01    0    0
  111    1   10   10    0    0   -0.1639839053E+01   -0.2476017952E+01   -0.1699561596E+01    0.3424392223E+01    0.1349641979E+00    0    0
  111    1   10   10    0    0   -0.1411238670E+01   -0.1941972017E+01   -0.1469262600E+01    0.2817764759E+01    0.1349639893E+00    0    0
  111    1   10   10    0    0   -0.1119276428E+02   -0.1694036293E+02   -0.1153671265E+02    0.2335311127E+02    0.1349643320E+00    0    0
 -211    1   10   10    0    0   -0.3401597738E+01   -0.4485162735E+01   -0.3024550676E+01    0.6391786575E+01    0.1395681053E+00    0    0
  -16    1    8    8    0    0   -0.1248978615E+01   -0.2250631094E+01   -0.3168082809E+02    0.3178521919E+02    0.3013369278E-03    0    0
  211    1    8    8    0    0    0.5852893591E+00   -0.5968374610E+00   -0.1032495880E+02    0.1035968304E+02    0.1395676285E+00    0    0
</event>
<event>
   20 9999    1    0.9119999695E+02    0.7565275169E-02    0.1185000000E+00
   11   -1    0    0    0    0    0.0000000000E+00    0.0000000000E+00    0.8000000000E+02    0.8000000000E+02    0.5109988851E-03    0    0
  -11   -1    0    0    0    0    0.0000000000E+00    0.0000000000E+00   -0.8000000000E+02    0.8000000000E+02    0.5109988851E-03    0    0
  -24    2    1    2    0    0   -0.3803394079E+01   -0.6732639790E+01    0.8667430878E+01    0.7884131622E+02    0.7798098755E+02    0    0
   24    2    1    2    0    0    0.3803179741E+01    0.6746291161E+01   -0.9443375587E+01    0.8038261414E+02    0.7944942474E+02    0    0
   22    1    1    2    0    0    0.2142733865E-03   -0.1365167834E-01    0.7759441137E+00    0.7760642171E+00    0.0000000000E+00    0    0
   15    2    3    3    0    0    0.2727556992E+02    0.1646067810E+02    0.2094189453E+02    0.3816584015E+02    0.1777029991E+01    0    0
  -16    1    3    3    0    0   -0.3107896423E+02   -0.2319331741E+02   -0.1227446365E+02    0.4067547607E+02    0.0000000000E+00    0    0
   16    1    4    4    0    0    0.2866978073E+02    0.2667286491E+02   -0.2332518768E+02    0.4557918930E+02    0.0000000000E+00    0    0
  -15    2    4    4    0    0   -0.2486660004E+02   -0.1992657280E+02    0.1388181210E+02    0.3480342865E+02    0.1777029991E+01    0    0
   16    1    6    6    0    0    0.6016361713E+01    0.3447283268E+01    0.4775625229E+01    0.8419440269E+01    0.4844515352E-03    0    0
  -24    2    6    6    0    0    0.2126028061E+02    0.1301404285E+02    0.1616709328E+02    0.2974790382E+02    0.1482549429E+01    0    0
 -211    1   11   11    0    0    0.1936254621E+01    0.1299881220E+01    0.1827508569E+01    0.2966149092E+01    0.1395677030E+00    0    0
 -211    1   11   11    0    0    0.8041050911E+01    0.4756992340E+01    0.5459534645E+01    0.1082189751E+02    0.1395687014E+00    0    0
  211    1   11   11    0    0    0.9663571358E+01    0.5953419685E+01    0.7629177570E+01    0.1367668247E+02    0.1395678520E+00    0    0
  111    1   11   11    0    0    0.1619405031E+01    0.1003749728E+01    0.1250872612E+01    0.2283174038E+01    0.1349640191E+00    0    0
  -16    1    9    9    0    0   -0.5152948856E+01   -0.4537918568E+01    0.3140120029E+01    0.7550227642E+01    0.5232674885E-03    0    0
   24    2    9    9    0    0   -0.1971463013E+02   -0.1538943958E+02    0.1074223804E+02    0.2725457191E+02    0.1383647203E+01    0    0
  111    1   17   17    0    0   -0.5345450878E+01   -0.4322567940E+01    0.2537687778E+01    0.7329154968E+01    0.1349636167E+00    0    0
  111    1   17   17    0    0   -0.8055573463E+01   -0.6066181183E+01    0.4753304005E+01    0.1114912224E+02    0.1349640042E+00    0    0
  321    1   17   17    0    0   -0.6313607216E+01   -0.5000690460E+01    0.3451246977E+01    0.8776294708E+01    0.4936670661E+00    0    0
</event>
<event>
   19 9999    1    0.9119999695E+02    0.7565275169E-02    0.1185000000E+00
   11   -1    0    0    0    0    0.0000000000E+00    0.0000000000E+00    0.8000000000E+02    0.8000000000E+02    0.5109988851E-03    0    0
  -11   -1    0    0    0    0    0.0000000000E+00    0.0000000000E+00   -0.8000000000E+02    0.8000000000E+02    0.5109988851E-03    0    0
  -24    2    1    2    0    0    0.4518929958E+01    0.1414498711E+02    0.1337674141E+01    0.8169337463E+02    0.8032132721E+02    0    0
   24    2    1    2    0    0   -0.4518929958E+01   -0.1414498711E+02   -0.1337376237E+01    0.7830632782E+02    0.7687387085E+02    0    0
   22    1    1    2    0    0   -0.3171694232E-06   -0.8951204222E-07   -0.2978645207E-03    0.2978647244E-03    0.0000000000E+00    0    0
   15    2    3    3    0    0    0.3057945633E+02    0.1102352428E+02    0.2897324181E+02    0.4358013153E+02    0.1777029991E+01    0    0
  -16    1    3    3    0    0   -0.2606052589E+02    0.3121462822E+01   -0.2763556671E+02    0.3811323929E+02    0.0000000000E+00    0    0
   16    1    4    4    0    0   -0.8112630844E+01    0.3069040680E+02    0.7048389435E+01    0.3251762009E+02    0.0000000000E+00    0    0
  -15    2    4    4    0    0    0.3593700886E+01   -0.4483539200E+02   -0.8385766029E+01    0.4578871155E+02    0.1777029991E+01    0    0
   16    1    6    6    0    0    0.2169830084E+01    0.7798358798E+00    0.2274662971E+01    0.3238888502E+01    0.5709315883E-03    0    0
  -24    2    6    6    0    0    0.2841082954E+02    0.1024412155E+02    0.2669971848E+02    0.4034295654E+02    0.1600606799E+01    0    0
 -321    1   11   11    0    0    0.1148618984E+02    0.3877707720E+01    0.1081798935E+02    0.1625551605E+02    0.4936669767E+00    0    0
 -211    1   11   11    0    0    0.9481119156E+01    0.3727607250E+01    0.9309086800E+01    0.1380091476E+02    0.1395689398E+00    0    0
  321    1   11   11    0    0    0.7443516254E+01    0.2638805866E+01    0.6572638988E+01    0.1028652096E+02    0.4936670065E+00    0    0
  -16    1    9    9    0    0    0.2322970629E+01   -0.2476059532E+02   -0.4225072384E+01    0.2522567177E+02    0.4228639591E-03    0    0
20213    2    9    9    0    0    0.1270871520E+01   -0.2007656097E+02   -0.4161023140E+01    0.2056483841E+02    0.9566194415E+00    0    0
  211    1   16   16    0    0    0.5469331741E+00   -0.6148802280E+01   -0.1174644470E+01    0.6285393715E+01    0.1395680904E+00    0    0
  211    1   16   16    0    0    0.5609204173E+00   -0.8072936058E+01   -0.2015634537E+01    0.8340814590E+01    0.1395681202E+00    0    0
 -211    1   16   16    0    0    0.1630180478E+00   -0.5854823589E+01   -0.9707443118E+00    0.5938632488E+01    0.1395679861E+00    0    0
</event>
<event>
   15 9999    1    0.9119999695E+02    0.7565275169E-02    0.1185000000E+00
   11   -1    0    0    0    0    0.0000000000E+00    0.0000000000E+00    0.8000000000E+02    0.8000000000E+02    0.5109988851E-03    0    0
  -11   -1    0    0    0    0    0.0000000000E+00    0.0000000000E+00   -0.8000000000E+02    0.8000000000E+02    0.5109988851E-03    0    0
  -24    2    1    2    0    0    0.2593843699E+01    0.7858890057E+01    0.1792611504E+02    0.7739376068E+02    0.7483287048E+02    0    0
   24    2    1    2    0    0   -0.2593843699E+01   -0.7858890057E+01   -0.1792611504E+02    0.8260623932E+02    0.8021193695E+02    0    0
   15    2    3    3    0    0   -0.1994097900E+02    0.3152736282E+02   -0.4705518246E+01    0.3764196014E+02    0.1777029991E+01    0    0
  -16    1    3    3    0    0    0.2253482246E+02   -0.2366847420E+02    0.2263163376E+02    0.3975180054E+02    0.0000000000E+00    0    0
   16    1    4    4    0    0   -0.4825491905E+01    0.1022264576E+02   -0.4695016098E+02    0.4829187775E+02    0.0000000000E+00    0    0
  -15    2    4    4    0    0    0.2231648207E+01   -0.1808153534E+02    0.2902404594E+02    0.3431436157E+02    0.1777029991E+01    0    0
   16    1    5    5    0    0   -0.1450708294E+02    0.2266322708E+02   -0.3250635862E+01    0.2710431671E+02    0.1495049946E-03    0    0
 -323    2    5    5    0    0   -0.5434680939E+01    0.8865377426E+01   -0.1455067158E+01    0.1053912354E+02    0.9084262252E+00    0    0
 -211    1   10   10    0    0   -0.1524924636E+01    0.2302037477E+01   -0.6571712494E+00    0.2841852188E+01    0.1395680159E+00    0    0
  130    1   10   10    0    0   -0.3909757376E+01    0.6563342094E+01   -0.7978962660E+00    0.7697273731E+01    0.4977200627E+00    0    0
  -16    1    8    8    0    0    0.9139767289E+00   -0.6901094913E+01    0.1075867176E+02    0.1281442451E+02    0.1364787604E-03    0    0
  -11    1    8    8    0    0   -0.1076563001E+00   -0.1569972515E+01    0.1890680552E+01    0.2459893703E+01    0.5033087800E-03    0    0
   12    1    8    8    0    0    0.1425415516E+01   -0.9611179352E+01    0.1637583733E+02    0.1904139137E+02    0.1220703125E-03    0    0
</event>
<event>
   18 9999    1    0.9119999695E+02    0.7565275169E-02    0.1185000000E+00
   11   -1    0    0    0    0    0.0000000000E+00    0.0000000000E+00    0.8000000000E+02    0.8000000000E+02    0.5109988851E-03    0    0
  -11   -1    0    0    0    0    0.0000000000E+00    0.0000000000E+00   -0.8000000000E+02    0.8000000000E+02    0.5109988851E-03    0    0
  -24    2    1    2    0    0    0.3973421097E+01   -0.7766680717E+01    0.1199616337E+02    0.7758390808E+02    0.7615277863E+02    0    0
   24    2    1    2    0    0   -0.3973421335E+01    0.7766676903E+01   -0.1199445534E+02    0.8241438293E+02    0.8106882477E+02    0    0
   22    1    1    2    0    0    0.3837066629E-06    0.3593409019E-05   -0.1708626049E-02    0.1708629774E-02    0.0000000000E+00    0    0
   15    2    3    3    0    0   -0.6149909973E+01    0.3263020325E+02    0.1355466557E+02    0.3590874863E+02    0.1777029991E+01    0    0
  -16    1    3    3    0    0    0.1012333107E+02   -0.4039688492E+02   -0.1558501720E+01    0.4167515945E+02    0.0000000000E+00    0    0
   16    1    4    4    0    0    0.7730160713E+01   -0.2170010757E+02    0.2477536201E+02    0.3382999420E+02    0.0000000000E+00    0    0
  -15    2    4    4    0    0   -0.1170358181E+02    0.2946678352E+02   -0.3676981735E+02    0.4858438492E+02    0.1777029991E+01    0    0
   16    1    6    6    0    0   -0.2547624826E+01    0.1601501274E+02    0.6811646461E+01    0.1758890533E+02    0.1057159898E-03    0    0
  -24    2    6    6    0    0   -0.3602527142E+01    0.1661647415E+02    0.6743552685E+01    0.1832125854E+02    0.1052429438E+01    0    0
 -321    1   11   11    0    0   -0.1712908387E+01    0.7149981022E+01    0.2881393194E+01    0.7912168980E+01    0.4936670661E+00    0    0
  310    1   11   11    0    0   -0.1889619112E+01    0.9466494560E+01    0.3862160206E+01    0.1040909195E+02    0.4977200329E+00    0    0
  -16    1    9    9    0    0   -0.2028878689E+01    0.4990046978E+01   -0.6063910484E+01    0.8110976219E+01    0.5790303112E-03    0    0
   24    2    9    9    0    0   -0.9675164223E+01    0.2447789574E+02   -0.3070735359E+02    0.4047531891E+02    0.1591805577E+01    0    0
  321    1   15   15    0    0   -0.2702487707E+01    0.5901644707E+01   -0.7787014484E+01    0.1014958858E+02    0.4936669767E+00    0    0
  111    1   15   15    0    0   -0.2465762377E+01    0.7103210449E+01   -0.8586249352E+01    0.1141391563E+02    0.1349640191E+00    0    0
  310    1   15   15    0    0   -0.4506912708E+01    0.1147303772E+02   -0.1433408642E+02    0.1891181183E+02    0.4977200031E+00    0    0
</event>
<event>
   21 9999    1    0.9119999695E+02    0.7565275169E-02    0.1185000000E+00
   11   -1    0    0    0    0    0.0000000000E+00    0.0000000000E+00    0.8000000000E+02    0.8000000000E+02    0.5109988851E-03    0    0
  -11   -1    0    0    0    0    0.0000000000E+00    0.0000000000E+00   -0.8000000000E+02    0.8000000000E+02    0.5109988851E-03    0    0
  -24    2    1    2    0    0   -0.6153046131E+01    0.3030580759E+01    0.6293933094E-01    0.7967367554E+02    0.7937786865E+02    0    0
   24    2    1    2    0    0    0.6153045177E+01   -0.3030581236E+01   -0.5976073816E-01    0.8032315063E+02    0.8002974701E+02    0    0
   22    1    1    2    0    0   -0.1196884938E-06    0.1452995857E-07   -0.2855020575E-02    0.2855020575E-02    0.0000000000E+00    0    0
   22    1    1    2    0    0    0.1232547220E-05    0.5145778914E-06   -0.3235680342E-03    0.3235707991E-03    0.0000000000E+00    0    0
   15    2    3    3    0    0   -0.1073479748E+02    0.3689861679E+02    0.1636807442E+02    0.4180688477E+02    0.1777029991E+01    0    0
  -16    1    3    3    0    0    0.4581751347E+01   -0.3386803818E+02   -0.1630513382E+02    0.3786679077E+02    0.0000000000E+00    0    0
   16    1    4    4    0    0    0.1508904552E+02    0.5908242226E+01    0.3739408112E+02    0.4075418854E+02    0.0000000000E+00    0    0
  -15    2    4    4    0    0   -0.8935999870E+01   -0.8938823700E+01   -0.3745384216E+02    0.3956896210E+02    0.1777029991E+01    0    0
   16    1    7    7    0    0   -0.1910768509E+01    0.5265896797E+01    0.2121033430E+01    0.5989948750E+01    0.2363881504E-03    0    0
  -24    2    7    7    0    0   -0.8824451447E+01    0.3163417435E+02    0.1424768543E+02    0.3581858063E+02    0.1175725460E+01    0    0
  111    1   12   12    0    0   -0.2926007271E+01    0.1023527622E+02    0.4664476395E+01    0.1162316418E+02    0.1349640936E+00    0    0
  111    1   12   12    0    0   -0.2195940018E+01    0.7581420422E+01    0.3796831846E+01    0.8759807587E+01    0.1349640042E+00    0    0
  111    1   12   12    0    0   -0.6513447165E+00    0.2457309484E+01    0.9739708900E+00    0.2725702524E+01    0.1349639744E+00    0    0
 -211    1   12   12    0    0   -0.3051159620E+01    0.1136016750E+02    0.4812406063E+01    0.1270990658E+02    0.1395679563E+00    0    0
  -16    1   10   10    0    0   -0.1650913656E+00   -0.6387610734E-01   -0.8659538031E+00    0.8838617802E+00    0.6276539061E-03    0    0
   24    2   10   10    0    0   -0.8771260262E+01   -0.8875298500E+01   -0.3658935928E+02    0.3868665314E+02    0.1473131776E+01    0    0
  221    1   18   18    0    0   -0.5231508732E+01   -0.5819884300E+01   -0.2314611244E+02    0.2443938255E+02    0.5488001704E+00    0    0
  211    1   18   18    0    0   -0.9576489925E+00   -0.7701503634E+00   -0.4306747437E+01    0.4480823040E+01    0.1395679265E+00    0    0
  111    1   18   18    0    0   -0.2582101583E+01   -0.2285263538E+01   -0.9136497498E+01    0.9766447067E+01    0.1349638999E+00    0    0
</event>
<event>
   25 9999    1    0.9119999695E+02    0.7565275169E-02    0.1185000000E+00
   11   -1    0    0    0    0    0.0000000000E+00    0.0000000000E+00    0.8000000000E+02    0.8000000000E+02    0.5109988851E-03    0    0
  -11   -1    0    0    0    0    0.0000000000E+00    0.0000000000E+00   -0.8000000000E+02    0.8000000000E+02    0.5109988851E-03    0    0
  -24    2    1    2    0    0    0.6986755371E+01    0.1831760216E+02   -0.3130592346E+01    0.7976441956E+02    0.7725421143E+02    0    0
   24    2    1    2    0    0   -0.6985649586E+01   -0.1831591797E+02    0.2876287699E+01    0.7998125458E+02    0.7748842621E+02    0    0
   22    1    1    2    0    0   -0.1055771601E-02   -0.1636435161E-02    0.2541240752E+00    0.2541315258E+00    0.0000000000E+00    0    0
   22    1    1    2    0    0   -0.4972967872E-04   -0.4700801946E-04    0.1807003864E-03    0.1932237647E-03    0.0000000000E+00    0    0
   15    2    3    3    0    0    0.2244703293E+02   -0.2310636139E+02    0.9762232780E+01    0.3370804596E+02    0.1777029991E+01    0    0
  -16    1    3    3    0    0   -0.1546027756E+02    0.4142396545E+02   -0.1289282513E+02    0.4605637741E+02    0.0000000000E+00    0    0
   16    1    4    4    0    0    0.2886378479E+02   -0.2965615082E+02    0.7494369030E+01    0.4205675888E+02    0.0000000000E+00    0    0
  -15    2    4    4    0    0   -0.3584943390E+02    0.1134023285E+02   -0.4618081093E+01    0.3792449570E+02    0.1777029991E+01    0    0
   16    1    7    7    0    0    0.7940125942E+01   -0.8136174202E+01    0.3094593048E+01    0.1178216553E+02    0.2114319796E-03    0    0
  -24    2    7    7    0    0    0.1450779152E+02   -0.1497109699E+02    0.6668023586E+01    0.2192720604E+02    0.1315315366E+01    0    0
 -211    1   12   12    0    0    0.1061332107E+01   -0.9129955173E+00    0.4598451555E+00    0.1480176806E+01    0.1395684779E+00    0    0
 -211    1   12   12    0    0    0.6540222168E+01   -0.6959786415E+01    0.3367496014E+01    0.1012781525E+02    0.1395680606E+00    0    0
  211    1   12   12    0    0    0.1951380134E+01   -0.2024315119E+01    0.7102372646E+00    0.2903386354E+01    0.1395680010E+00    0    0
  111    1   12   12    0    0    0.1022382140E+01   -0.1029954553E+01    0.5293325782E+00    0.1550638556E+01    0.1349640340E+00    0    0
  111    1   12   12    0    0    0.3932474136E+01   -0.4044044495E+01    0.1601112485E+01    0.5865187645E+01    0.1349640340E+00    0    0
  -16    1   10   10    0    0   -0.3633243799E+01    0.1033166647E+01   -0.4342167675E+00    0.3802162170E+01    0.4382753468E-04    0    0
   24    2   10   10    0    0   -0.3221760178E+02    0.1030751228E+02   -0.4184046268E+01    0.3412382507E+02    0.1646378994E+01    0    0
  211    1   19   19    0    0   -0.6384071827E+01    0.2111500978E+01   -0.9548823833E+00    0.6793091297E+01    0.1395680010E+00    0    0
  211    1   19   19    0    0   -0.2505594254E+01    0.1062071681E+01   -0.2460679114E+00    0.2736060619E+01    0.1395680010E+00    0    0
 -211    1   19   19    0    0   -0.5148112297E+01    0.1680541039E+01   -0.6993815899E+00    0.5462224007E+01    0.1395679861E+00    0    0
  111    1   19   19    0    0   -0.7528403282E+01    0.2345108271E+01   -0.9537233114E+00    0.7943814754E+01    0.1349639893E+00    0    0
  111    1   19   19    0    0   -0.7629724026E+01    0.2425703287E+01   -0.8803157210E+00    0.8055426598E+01    0.1349639893E+00    0    0
  111    1   19   19    0    0   -0.3021696568E+01    0.6825868487E+00   -0.4496753514E+00    0.3133208752E+01    0.1349640042E+00    0    0
</event>
<event>
   17 9999    1    0.9119999695E+02    0.7565275169E-02    0.1185000000E+00
   11   -1    0    0    0    0    0.0000000000E+00    0.0000000000E+00    0.8000000000E+02    0.8000000000E+02    0.5109988851E-03    0    0
  -11   -1    0    0    0    0    0.0000000000E+00    0.0000000000E+00   -0.8000000000E+02    0.8000000000E+02    0.5109988851E-03    0    0
  -24    2    1    2    0    0   -0.2151710987E+01    0.1629153490E+01    0.1319210243E+02    0.7857231140E+02    0.7740989685E+02    0    0
   24    2    1    2    0    0    0.2151710987E+01   -0.1629153132E+01   -0.1318600941E+02    0.8142160034E+02    0.8030144501E+02    0    0
   22    1    1    2    0    0    0.1590409049E-07   -0.3851802433E-06   -0.6092986092E-02    0.6092986092E-02    0.0000000000E+00    0    0
   15    2    3    3    0    0   -0.1189960957E+02    0.8495020270E+00    0.4432653809E+02    0.4593824005E+02    0.1777029991E+01    0    0
  -16    1    3    3    0    0    0.9747898102E+01    0.7796514630E+00   -0.3113443375E+02    0.3263406754E+02    0.0000000000E+00    0    0
   16    1    4    4    0    0   -0.2005209923E+02    0.3331861115E+02   -0.5554718971E+01    0.3928194809E+02    0.0000000000E+00    0    0
  -15    2    4    4    0    0    0.2220381165E+02   -0.3494776535E+02   -0.7631290913E+01    0.4213964844E+02    0.1777029991E+01    0    0
   16    1    6    6    0    0   -0.8712314606E+01    0.5412001610E+00    0.3252040863E+02    0.3367156601E+02    0.1590321626E-03    0    0
 -323    2    6    6    0    0   -0.3187762976E+01    0.3083353341E+00    0.1180787086E+02    0.1226848221E+02    0.9126617312E+00    0    0
  111    1   11   11    0    0   -0.1926209450E+01    0.2933572829E+00    0.7654222965E+01    0.7899473667E+01    0.1349639595E+00    0    0
 -321    1   11   11    0    0   -0.1261554003E+01    0.1497806888E-01    0.4153649330E+01    0.4369010448E+01    0.4936670363E+00    0    0
  -16    1    9    9    0    0    0.1381848431E+02   -0.2060883713E+02   -0.4712089539E+01    0.2525625610E+02    0.1881229837E-03    0    0
  213    2    9    9    0    0    0.8386199951E+01   -0.1434030247E+02   -0.2919501781E+01    0.1688504982E+02    0.7802463770E+00    0    0
  211    1   15   15    0    0    0.4542291641E+01   -0.7336272240E+01   -0.1813229203E+01    0.8818196297E+01    0.1395680308E+00    0    0
  111    1   15   15    0    0    0.3843908787E+01   -0.7004030704E+01   -0.1106272578E+01    0.8066854477E+01    0.1349640638E+00    0    0
</event>
<event>
   21 9999    1    0.9119999695E+02    0.7565275169E-02    0.1185000000E+00
   11   -1    0    0    0    0    0.0000000000E+00    0.0000000000E+00    0.8000000000E+02    0.8000000000E+02    0.5109988851E-03    0    0
  -11   -1    0    0    0    0    0.0000000000E+00    0.0000000000E+00   -0.8000000000E+02    0.8000000000E+02    0.5109988851E-03    0    0
  -24    2    1    2    0    0    0.1995560455E+02    0.2155159187E+02   -0.1296977234E+02    0.8485348511E+02    0.7854426575E+02    0    0
   24    2    1    2    0    0   -0.1995560455E+02   -0.2155159187E+02    0.1296977234E+02    0.7514651489E+02    0.6794178772E+02    0    0
   15    2    3    3    0    0    0.1447177291E+01    0.3519845963E+02    0.2303750801E+02    0.4212968826E+02    0.1777029991E+01    0    0
  -16    1    3    3    0    0    0.1850842667E+02   -0.1364686871E+02   -0.3600727844E+02    0.4272380066E+02    0.0000000000E+00    0    0
   16    1    4    4    0    0   -0.2399004364E+02    0.5641469479E+01    0.3292755127E+02    0.4112872314E+02    0.0000000000E+00    0    0
  -15    2    4    4    0    0    0.4034438133E+01   -0.2719305992E+02   -0.1995777893E+02    0.3401778793E+02    0.1777029991E+01    0    0
   16    1    5    5    0    0    0.8823024482E-01    0.7866039872E+00    0.4103336334E+00    0.8915739655E+00    0.4315837214E-04    0    0
  -24    2    5    5    0    0    0.1359004021E+01    0.3441324234E+02    0.2262808037E+02    0.4123977280E+02    0.1603307486E+01    0    0
 -211    1   10   10    0    0    0.1026895791E+00    0.4413181305E+01    0.2955834389E+01    0.5314428329E+01    0.1395680159E+00    0    0
 -211    1   10   10    0    0    0.6244800091E+00    0.9333382607E+01    0.6202188015E+01    0.1122446537E+02    0.1395680010E+00    0    0
 -211    1   10   10    0    0    0.1408231631E-01    0.6492982864E+01    0.4283079147E+01    0.7779670238E+01    0.1395679712E+00    0    0
  211    1   10   10    0    0    0.6790175289E-01    0.4186222076E+01    0.2380210638E+01    0.4818085670E+01    0.1395680606E+00    0    0
  211    1   10   10    0    0    0.3596357107E+00    0.5392541885E+01    0.3737625360E+01    0.6572531223E+01    0.1395680159E+00    0    0
  111    1   10   10    0    0    0.1902147382E+00    0.4594932079E+01    0.3069143534E+01    0.5530591011E+01    0.1349639893E+00    0    0
  -16    1    8    8    0    0    0.6530313492E+00   -0.6467708111E+01   -0.4121762753E+01    0.7697182655E+01    0.5790303112E-03    0    0
20213    2    8    8    0    0    0.3381565571E+01   -0.2072642136E+02   -0.1583679962E+02    0.2632194328E+02    0.1010415912E+01    0    0
  211    1   18   18    0    0    0.1210700512E+01   -0.8347037315E+01   -0.6131260872E+01    0.1042835903E+02    0.1395683587E+00    0    0
  211    1   18   18    0    0    0.1408635736E+01   -0.9365561485E+01   -0.7174438000E+01    0.1188234138E+02    0.1395681202E+00    0    0
 -211    1   18   18    0    0    0.7622290254E+00   -0.3013821125E+01   -0.2531100273E+01    0.4011241436E+01    0.1395680457E+00    0    0
</event>
<event>
   19 9999    1    0.9119999695E+02    0.7565275169E-02    0.1185000000E+00
   11   -1    0    0    0    0    0.0000000000E+00    0.0000000000E+00    0.8000000000E+02    0.8000000000E+02    0.5109988851E-03    0    0
  -11   -1    0    0    0    0    0.0000000000E+00    0.0000000000E+00   -0.8000000000E+02    0.8000000000E+02    0.5109988851E-03    0    0
  -24    2    1    2    0    0   -0.1975364685E+02   -0.8659341812E+01    0.8964960098E+01    0.7698787689E+02    0.7335919952E+02    0    0
   24    2    1    2    0    0    0.1975588608E+02    0.8666026115E+01   -0.8899813652E+01    0.8294657898E+02    0.7959606934E+02    0    0
   22    1    1    2    0    0   -0.2238108777E-02   -0.6684297230E-02   -0.6300369650E-01    0.6339680403E-01    0.0000000000E+00    0    0
   22    1    1    2    0    0   -0.2028920676E-06   -0.1506013231E-09   -0.2142507583E-02    0.2142507583E-02    0.0000000000E+00    0    0
   15    2    3    3    0    0    0.1338454533E+02    0.6167609096E+00    0.3256653976E+02    0.3525994492E+02    0.1777029991E+01    0    0
  -16    1    3    3    0    0   -0.3313819122E+02   -0.9276103020E+01   -0.2360157967E+02    0.4172793198E+02    0.0000000000E+00    0    0
   16    1    4    4    0    0    0.3970318985E+02   -0.2871304274E+01    0.2111833000E+02    0.4506186295E+02    0.0000000000E+00    0    0
  -15    2    4    4    0    0   -0.1994730568E+02    0.1153733063E+02   -0.3001814461E+02    0.3788471603E+02    0.1777029991E+01    0    0
   16    1    7    7    0    0    0.4809418201E+01    0.1002491787E+00    0.1122243214E+02    0.1220997715E+02    0.2157918643E-03    0    0
  -24    2    7    7    0    0    0.8575653076E+01    0.5165359974E+00    0.2134538841E+02    0.2305135727E+02    0.1389516830E+01    0    0
  111    1   12   12    0    0    0.2357934475E+01    0.8626122773E-01    0.5881852150E+01    0.6338903427E+01    0.1349640489E+00    0    0
  111    1   12   12    0    0    0.1151054621E+01    0.1856557876E+00    0.3601025820E+01    0.3787478924E+01    0.1349631548E+00    0    0
  111    1   12   12    0    0    0.1611832082E+00   -0.6011975929E-02    0.3619149327E+00    0.4185856283E+00    0.1349641681E+00    0    0
 -211    1   12   12    0    0    0.4905482292E+01    0.2506309748E+00    0.1150059795E+02    0.1250639057E+02    0.1395680606E+00    0    0
  -16    1   10   10    0    0   -0.1342673016E+02    0.7891435623E+01   -0.2122236252E+02    0.2632376289E+02    0.0000000000E+00    0    0
  -11    1   10   10    0    0   -0.6223509312E+01    0.3526534319E+01   -0.8176698685E+01    0.1086401939E+02    0.5179004511E-03    0    0
   12    1   10   10    0    0   -0.2978503108E+00    0.1198142841E+00   -0.6202629805E+00    0.6984242797E+00    0.3051757812E-04    0    0
</event>
<event>
   18 9999    1    0.9119999695E+02    0.7565275169E-02    0.1185000000E+00
   11   -1    0    0    0    0    0.0000000000E+00    0.0000000000E+00    0.8000000000E+02    0.8000000000E+02    0.5109988851E-03    0    0
  -11   -1    0    0    0    0    0.0000000000E+00    0.0000000000E+00   -0.8000000000E+02    0.8000000000E+02    0.5109988851E-03    0    0
  -24    2    1    2    0    0   -0.1850296855E+01   -0.1417670488E+01    0.2250432491E+01    0.8080218506E+02    0.8073720551E+02    0    0
   24    2    1    2    0    0    0.1863671899E+01    0.1397167087E+01   -0.2255285740E+01    0.7917285156E+02    0.7910644531E+02    0    0
   22    1    1    2    0    0   -0.1337506529E-01    0.2050338872E-01    0.4853220191E-02    0.2495666407E-01    0.0000000000E+00    0    0
   15    2    3    3    0    0    0.3555908203E+02   -0.9726179123E+01    0.1581178284E+02    0.4015242386E+02    0.1777029991E+01    0    0
  -16    1    3    3    0    0   -0.3740937805E+02    0.8308508873E+01   -0.1356135082E+02    0.4064976120E+02    0.0000000000E+00    0    0
   16    1    4    4    0    0    0.3614503479E+02   -0.1554868698E+02   -0.8840348244E+01    0.4032836151E+02    0.0000000000E+00    0    0
  -15    2    4    4    0    0   -0.3428136063E+02    0.1694585419E+02    0.6585062981E+01    0.3884449387E+02    0.1777029991E+01    0    0
   16    1    6    6    0    0    0.2975780678E+02   -0.8381683350E+01    0.1279773045E+02    0.3345985031E+02    0.3662109375E-03    0    0
 -321    1    6    6    0    0    0.5802677155E+01   -0.1344879389E+01    0.3014675617E+01    0.6694157124E+01    0.4936670065E+00    0    0
  -16    1    9    9    0    0   -0.3973065615E+01    0.1951563597E+01    0.5079496503E+00    0.4455543041E+01    0.8631674427E-04    0    0
   24    2    9    9    0    0   -0.3030964470E+02    0.1499495697E+02    0.6077372551E+01    0.3439047623E+02    0.1499070883E+01    0    0
  211    1   13   13    0    0   -0.3102850914E+01    0.1400205970E+01    0.6878646016E+00    0.3475758553E+01    0.1395680010E+00    0    0
  211    1   13   13    0    0   -0.1677767515E+01    0.8686462641E+00    0.4762088358E+00    0.1953382730E+01    0.1395679861E+00    0    0
  211    1   13   13    0    0   -0.1463765049E+02    0.7723092556E+01    0.2734348536E+01    0.1677507401E+02    0.1395679116E+00    0    0
 -211    1   13   13    0    0   -0.7813477993E+01    0.3541537523E+01    0.1562087774E+01    0.8720809937E+01    0.1395679265E+00    0    0
 -211    1   13   13    0    0   -0.3077898502E+01    0.1461475492E+01    0.6168629527E+00    0.3465453625E+01    0.1395680010E+00    0    0
</event>
<event>
   18 9999    1    0.9119999695E+02    0.7565275169E-02    0.1185000000E+00
   11   -1    0    0    0    0    0.0000000000E+00    0.0000000000E+00    0.8000000000E+02    0.8000000000E+02    0.5109988851E-03    0    0
  -11   -1    0    0    0    0    0.0000000000E+00    0.0000000000E+00   -0.8000000000E+02    0.8000000000E+02    0.5109988851E-03    0    0
  -24    2    1    2    0    0    0.8923292905E-01    0.9509887695E+01    0.8233752251E+01    0.7871248627E+02    0.7770080566E+02    0    0
   24    2    1    2    0    0   -0.8923292905E-01   -0.9509887695E+01   -0.8233752251E+01    0.8128751373E+02    0.8030827332E+02    0    0
   15    2    3    3    0    0   -0.2501787758E+02    0.1055302978E+01    0.3366181564E+02    0.4199146652E+02    0.1777029991E+01    0    0
  -16    1    3    3    0    0    0.2510711098E+02    0.8454584122E+01   -0.2542806244E+02    0.3672101974E+02    0.0000000000E+00    0    0
   16    1    4    4    0    0   -0.6889731288E+00    0.3335840607E+02    0.9751645088E+01    0.3476136398E+02    0.0000000000E+00    0    0
  -15    2    4    4    0    0    0.5997402072E+00   -0.4286828995E+02   -0.1798539734E+02    0.4652614975E+02    0.1777029991E+01    0    0
   16    1    5    5    0    0   -0.2198308468E+01   -0.5412451178E-01    0.2675232172E+01    0.3462998152E+01    0.2283726499E-03    0    0
  -24    2    5    5    0    0   -0.2282055283E+02    0.1109469056E+01    0.3098790741E+02    0.3853012085E+02    0.1520332932E+01    0    0
 -211    1   10   10    0    0   -0.1119430256E+02    0.5898893476E+00    0.1496395779E+02    0.1869758987E+02    0.1395680904E+00    0    0
  130    1   10   10    0    0   -0.1010861874E+02    0.1824014783E+00    0.1403351784E+02    0.1730331802E+02    0.4977200925E+00    0    0
  111    1   10   10    0    0   -0.1517632842E+01    0.3371782005E+00    0.1990431547E+01    0.2529215574E+01    0.1349641979E+00    0    0
  -16    1    8    8    0    0    0.4224463552E-01   -0.1853877783E+01   -0.5383316875E+00    0.1930919170E+01    0.4002342757E-03    0    0
   24    2    8    8    0    0    0.5575191379E+00   -0.4101610184E+02   -0.1744777298E+02    0.4459706116E+02    0.1357060194E+01    0    0
  321    1   15   15    0    0    0.1605841815E+00   -0.1667713165E+02   -0.7184350491E+01    0.1816620827E+02    0.4936670959E+00    0    0
  111    1   15   15    0    0   -0.9614828229E-01   -0.2826569557E+01   -0.1098433614E+01    0.3037023544E+01    0.1349641681E+00    0    0
  130    1   15   15    0    0    0.4930832386E+00   -0.2151240158E+02   -0.9164989471E+01    0.2339382935E+02    0.4977200031E+00    0    0
</event>
<event>
   20 9999    1    0.9119999695E+02    0.7565275169E-02    0.1185000000E+00
   11   -1    0    0    0    0    0.0000000000E+00    0.0000000000E+00    0.8000000000E+02    0.8000000000E+02    0.5109988851E-03    0    0
  -11   -1    0    0    0    0    0.0000000000E+00    0.0000000000E+00   -0.8000000000E+02    0.8000000000E+02    0.5109988851E-03    0    0
  -24    2    1    2    0    0    0.1413918972E+02   -0.3315154016E+00   -0.4103752613E+01    0.8012422943E+02    0.7875928497E+02    0    0
   24    2    1    2    0    0   -0.1413918972E+02    0.3315154016E+00    0.4103994370E+01    0.7987552643E+02    0.7850624847E+02    0    0
   22    1    1    2    0    0   -0.8973414234E-09    0.6293954802E-09   -0.2416979696E-03    0.2416979696E-03    0.0000000000E+00    0    0
   15    2    3    3    0    0    0.1715450096E+02    0.3165510750E+02    0.1881109428E+02    0.4066125488E+02    0.1777029991E+01    0    0
  -16    1    3    3    0    0   -0.3015311718E+01   -0.3198662186E+02   -0.2291484642E+02    0.3946297455E+02    0.0000000000E+00    0    0
   16    1    4    4    0    0   -0.3128809929E+02    0.2935534477E+02    0.1324564171E+02    0.4490131760E+02    0.0000000000E+00    0    0
  -15    2    4    4    0    0    0.1714891052E+02   -0.2902382851E+02   -0.9141647339E+01    0.3497420883E+02    0.1777029991E+01    0    0
   16    1    6    6    0    0    0.5251415253E+01    0.8819439888E+01    0.5448647022E+01    0.1162099934E+02    0.5501634441E-03    0    0
  -24    2    6    6    0    0    0.1190375996E+02    0.2283691216E+02    0.1336318588E+02    0.2904185486E+02    0.1276939988E+01    0    0
 -321    1   11   11    0    0    0.5420141697E+01    0.1073855019E+02    0.6020787716E+01    0.1346060848E+02    0.4936670661E+00    0    0
 -211    1   11   11    0    0    0.2796524286E+01    0.5836545944E+01    0.3566771269E+01    0.7391018391E+01    0.1395681500E+00    0    0
  211    1   11   11    0    0    0.3687093496E+01    0.6261813641E+01    0.3775626421E+01    0.8190226555E+01    0.1395678967E+00    0    0
  -16    1    9    9    0    0    0.5276417255E+01   -0.8312125206E+01   -0.2515450716E+01    0.1016166878E+02    0.5806365516E-03    0    0
   24    2    9    9    0    0    0.1187316704E+02   -0.2071284485E+02   -0.6626555920E+01    0.2481391525E+02    0.1350985050E+01    0    0
  211    1   16   16    0    0    0.1193526745E+01   -0.2312562466E+01   -0.8093666434E+00    0.2728920221E+01    0.1395680457E+00    0    0
  211    1   16   16    0    0    0.1819050074E+01   -0.3559111834E+01   -0.1023583889E+01    0.4128367901E+01    0.1395678222E+00    0    0
 -211    1   16   16    0    0    0.7036652565E+01   -0.1158224964E+02   -0.4062630177E+01    0.1414876080E+02    0.1395680159E+00    0    0
  111    1   16   16    0    0    0.1823938489E+01   -0.3258921862E+01   -0.7309756875E+00    0.3807868719E+01    0.1349640042E+00    0    0
</event>
<event>
   19 9999    1    0.9119999695E+02    0.7565275169E-02    0.1185000000E+00
   11   -1    0    0    0    0    0.0000000000E+00    0.0000000000E+00    0.8000000000E+02    0.8000000000E+02    0.5109988851E-03    0    0
  -11   -1    0    0    0    0    0.0000000000E+00    0.0000000000E+00   -0.8000000000E+02    0.8000000000E+02    0.5109988851E-03    0    0
  -24    2    1    2    0    0    0.9399348259E+01   -0.1997403336E+02   -0.2050921679E+01    0.7208784485E+02    0.6859403229E+02    0    0
   24    2    1    2    0    0   -0.9399065018E+01    0.1997424698E+02    0.2047407866E+01    0.8790862274E+02    0.8506716156E+02    0    0
   22    1    1    2    0    0   -0.2832427272E-03   -0.2134217502E-03    0.3513917560E-02    0.3531768918E-02    0.0000000000E+00    0    0
   15    2    3    3    0    0    0.1159482765E+02    0.6837315083E+01    0.2838641739E+02    0.3146641922E+02    0.1777029991E+01    0    0
  -16    1    3    3    0    0   -0.2195479870E+01   -0.2681134796E+02   -0.3043733978E+02    0.4062142563E+02    0.0000000000E+00    0    0
   16    1    4    4    0    0   -0.2593136024E+02    0.3764835739E+02   -0.2456254196E+02    0.5189559555E+02    0.0000000000E+00    0    0
  -15    2    4    4    0    0    0.1653229523E+02   -0.1767411232E+02    0.2660995102E+02    0.3601303101E+02    0.1777029991E+01    0    0
   16    1    6    6    0    0    0.1008929372E+01    0.7834304571E+00    0.2184261560E+01    0.2530355930E+01    0.2589502255E-03    0    0
  -24    2    6    6    0    0    0.1058635521E+02    0.6054153919E+01    0.2620327568E+02    0.2893730164E+02    0.1425532818E+01    0    0
 -321    1   11   11    0    0    0.5350077629E+01    0.3314324379E+01    0.1429421234E+02    0.1562614155E+02    0.4936668277E+00    0    0
  111    1   11   11    0    0    0.1835600972E+01    0.9762376547E+00    0.4131630421E+01    0.4627208233E+01    0.1349646002E+00    0    0
  310    1   11   11    0    0    0.3400676012E+01    0.1763591647E+01    0.7777430534E+01    0.8683950424E+01    0.4977199733E+00    0    0
  -16    1    9    9    0    0    0.3428352594E+01   -0.3598389387E+01    0.5346485615E+01    0.7299788952E+01    0.7065330283E-03    0    0
   24    2    9    9    0    0    0.1310459137E+02   -0.1407641697E+02    0.2126451111E+02    0.2871465492E+02    0.1573599696E+01    0    0
  221    1   16   16    0    0    0.6820630550E+01   -0.7503726482E+01    0.1162632465E+02    0.1543695259E+02    0.5487999916E+00    0    0
  211    1   16   16    0    0    0.1007808447E+01   -0.7258507013E+00    0.1490911961E+01    0.1945465207E+01    0.1395680755E+00    0    0
  111    1   16   16    0    0    0.5276153564E+01   -0.5846840382E+01    0.8147274971E+01    0.1133223915E+02    0.1349640936E+00    0    0
</event>
<event>
   19 9999    1    0.9119999695E+02    0.7565275169E-02    0.1185000000E+00
   11   -1    0    0    0    0    0.0000000000E+00    0.0000000000E+00    0.8000000000E+02    0.8000000000E+02    0.5109988851E-03    0    0
  -11   -1    0    0    0    0    0.0000000000E+00    0.0000000000E+00   -0.8000000000E+02    0.8000000000E+02    0.5109988851E-03    0    0
  -24    2    1    2    0    0    0.3577056646E+01    0.1394177532E+02    0.3979434204E+02    0.6597776794E+02    0.5061924362E+02    0    0
   24    2    1    2    0    0   -0.3576243639E+01   -0.1393853092E+02   -0.4090119171E+02    0.9291537476E+02    0.8217839050E+02    0    0
   22    1    1    2    0    0   -0.8659815066E-03   -0.2991038607E-02    0.1066195369E+01    0.1066199899E+01    0.0000000000E+00    0    0
   22    1    1    2    0    0    0.5282266648E-04   -0.2530309721E-03    0.4065630957E-01    0.4065712914E-01    0.0000000000E+00    0    0
   15    2    3    3    0    0   -0.1157822132E+02   -0.1522897243E+02    0.1023246956E+02    0.2176782227E+02    0.1777029991E+01    0    0
  -16    1    3    3    0    0    0.1515527821E+02    0.2917074776E+02    0.2956187248E+02    0.4420994568E+02    0.0000000000E+00    0    0
   16    1    4    4    0    0    0.3354458618E+02   -0.2094854546E+02   -0.3462596655E+01    0.3969975281E+02    0.0000000000E+00    0    0
  -15    2    4    4    0    0   -0.3712083054E+02    0.7010013580E+01   -0.3743859482E+02    0.5321562195E+02    0.1777029991E+01    0    0
   16    1    7    7    0    0   -0.3021306038E+01   -0.4498227119E+01    0.2265288353E+01    0.5873147964E+01    0.0000000000E+00    0    0
 -323    2    7    7    0    0   -0.8557371140E+01   -0.1073134422E+02    0.7967583179E+01    0.1589553070E+02    0.8917106986E+00    0    0
 -211    1   12   12    0    0   -0.3968508005E+01   -0.4986137867E+01    0.4006464005E+01    0.7528735638E+01    0.1395680606E+00    0    0
  310    1   12   12    0    0   -0.4588862419E+01   -0.5745206833E+01    0.3961118937E+01    0.8366794586E+01    0.4977200627E+00    0    0
  -16    1   10   10    0    0   -0.5435060978E+01    0.9849461913E+00   -0.6012871742E+01    0.8164841652E+01    0.4567452997E-03    0    0
   24    2   10   10    0    0   -0.3168722916E+02    0.6025343418E+01   -0.3142719650E+02    0.4505287552E+02    0.1306772709E+01    0    0
  321    1   16   16    0    0   -0.1351890469E+02    0.2814581871E+01   -0.1348944950E+02    0.1931040192E+02    0.4936671257E+00    0    0
  111    1   16   16    0    0   -0.4866394997E+01    0.9562023282E+00   -0.4976252079E+01    0.7026906967E+01    0.1349639744E+00    0    0
  130    1   16   16    0    0   -0.1330192566E+02    0.2254558325E+01   -0.1296149254E+02    0.1871556282E+02    0.4977199733E+00    0    0
</event>
<event>
   21 9999    1    0.9119999695E+02    0.7565275169E-02    0.1185000000E+00
   11   -1    0    0    0    0    0.0000000000E+00    0.0000000000E+00    0.8000000000E+02    0.8000000000E+02    0.5109988851E-03    0    0
  -11   -1    0    0    0    0    0.0000000000E+00    0.0000000000E+00   -0.8000000000E+02    0.8000000000E+02    0.5109988851E-03    0    0
  -24    2    1    2    0    0    0.5755517006E+01    0.5402470589E+01   -0.8786970139E+01    0.7835523987E+02    0.7745979309E+02    0    0
   24    2    1    2    0    0   -0.5755517006E+01   -0.5402470589E+01    0.8786970139E+01    0.8164476013E+02    0.8078578949E+02    0    0
   15    2    3    3    0    0   -0.9590260506E+01   -0.2171973801E+02   -0.1520830536E+02    0.2825191307E+02    0.1777029991E+01    0    0
  -16    1    3    3    0    0    0.1904269409E+02    0.2551619148E+02    0.1887539482E+02    0.3701325226E+02    0.0000000000E+00    0    0
   22    1    3    3    0    0   -0.3696915627E+01    0.1606017590E+01   -0.1245405865E+02    0.1309007549E+02    0.0000000000E+00    0    0
   16    1    4    4    0    0    0.3228071928E+01   -0.4218228149E+02    0.1088665009E+02    0.4368391800E+02    0.0000000000E+00    0    0
  -15    2    4    4    0    0   -0.8983589172E+01    0.3677981186E+02   -0.2099679947E+01    0.3796084595E+02    0.1777029991E+01    0    0
   16    1    5    5    0    0   -0.8934631348E+00   -0.1626338005E+01   -0.1056472659E+01    0.2135272026E+01    0.6149121327E-03    0    0
*****    2    5    5    0    0   -0.8697171211E+01   -0.2009424973E+02   -0.1415242290E+02    0.2611774445E+02    0.1557466149E+01    0    0
  111    1   11   11    0    0   -0.4836802930E-01   -0.2769576311E+00   -0.2301629186E+00    0.3876017332E+00    0.1349639744E+00    0    0
  111    1   11   11    0    0   -0.2085481882E+01   -0.5593426228E+01   -0.3713322163E+01    0.7031544685E+01    0.1349641085E+00    0    0
 -211    1   11   11    0    0   -0.6563311577E+01   -0.1422383308E+02   -0.1020893002E+02    0.1869856262E+02    0.1395675093E+00    0    0
  -16    1    9    9    0    0   -0.1473397732E+01    0.6446588039E+01   -0.7746800780E+00    0.6658041954E+01    0.2990099892E-03    0    0
   24    2    9    9    0    0   -0.7510544777E+01    0.3033467102E+02   -0.1325082421E+01    0.3130429840E+02    0.1265985012E+01    0    0
  211    1   16   16    0    0   -0.8396643996E+00    0.4152658463E+01   -0.2195374817E+00    0.4244677067E+01    0.1395677775E+00    0    0
  211    1   16   16    0    0   -0.1651513100E+01    0.6514850616E+01   -0.7153284387E-03    0.6722369671E+01    0.1395679116E+00    0    0
 -211    1   16   16    0    0   -0.1961866856E+01    0.8110180855E+01   -0.5569864511E+00    0.8363830566E+01    0.1395680308E+00    0    0
  111    1   16   16    0    0   -0.1691604137E+01    0.6609395027E+01   -0.4377860725E+00    0.6837799072E+01    0.1349640042E+00    0    0
  111    1   16   16    0    0   -0.1365895510E+01    0.4947585106E+01   -0.1100568548E+00    0.5135620117E+01    0.1349640191E+00    0    0
</event>
<event>
   17 9999    1    0.9119999695E+02    0.7565275169E-02    0.1185000000E+00
   11   -1    0    0    0    0    0.0000000000E+00    0.0000000000E+00    0.8000000000E+02    0.8000000000E+02    0.5109988851E-03    0    0
  -11   -1    0    0    0    0    0.0000000000E+00    0.0000000000E+00   -0.8000000000E+02    0.8000000000E+02    0.5109988851E-03    0    0
  -24    2    1    2    0    0   -0.5206338882E+01   -0.1611464691E+02    0.6256225586E+01    0.7862842560E+02    0.7652778625E+02    0    0
   24    2    1    2    0    0    0.5206338882E+01    0.1611464691E+02   -0.6256225586E+01    0.8137157440E+02    0.7934358215E+02    0    0
   15    2    3    3    0    0    0.2733451653E+02   -0.2761322784E+02    0.1704901505E+02    0.4246755219E+02    0.1777029991E+01    0    0
  -16    1    3    3    0    0   -0.3254085541E+02    0.1149858093E+02   -0.1079279041E+02    0.3616087723E+02    0.0000000000E+00    0    0
   16    1    4    4    0    0    0.3006043625E+02    0.2940320206E+02    0.1643262291E+02    0.4514653015E+02    0.0000000000E+00    0    0
  -15    2    4    4    0    0   -0.2485409737E+02   -0.1328855610E+02   -0.2268884850E+02    0.3622504044E+02    0.1777029991E+01    0    0
   16    1    5    5    0    0    0.1919134331E+02   -0.1976082993E+02    0.1203454876E+02    0.3006041336E+02    0.1110856610E-03    0    0
 -323    2    5    5    0    0    0.8144249916E+01   -0.7853483677E+01    0.5015137672E+01    0.1240880966E+02    0.9060570598E+00    0    0
  111    1   10   10    0    0    0.4580728054E+01   -0.4616239071E+01    0.2677940369E+01    0.7034366608E+01    0.1349640042E+00    0    0
 -321    1   10   10    0    0    0.3563522577E+01   -0.3237244844E+01    0.2337197781E+01    0.5374444008E+01    0.4936670363E+00    0    0
  -16    1    8    8    0    0   -0.1064246559E+02   -0.5883277893E+01   -0.1038533688E+02    0.1599156857E+02    0.1220703125E-03    0    0
20213    2    8    8    0    0   -0.1421261024E+02   -0.7405801296E+01   -0.1230440617E+02    0.2023489952E+02    0.1099341989E+01    0    0
  111    1   14   14    0    0   -0.6415450573E+01   -0.3292236805E+01   -0.5256011963E+01    0.8924163818E+01    0.1349638999E+00    0    0
  111    1   14   14    0    0   -0.2091559887E+01   -0.1246840954E+01   -0.1610561848E+01    0.2922560453E+01    0.1349638402E+00    0    0
  211    1   14   14    0    0   -0.5705600739E+01   -0.2866724253E+01   -0.5437833309E+01    0.8388175964E+01    0.1395679265E+00    0    0
</event>
<event>
   20 9999    1    0.9119999695E+02    0.7565275169E-02    0.1185000000E+00
   11   -1    0    0    0    0    0.0000000000E+00    0.0000000000E+00    0.8000000000E+02    0.8000000000E+02    0.5109988851E-03    0    0
  -11   -1    0    0    0    0    0.0000000000E+00    0.0000000000E+00   -0.8000000000E+02    0.8000000000E+02    0.5109988851E-03    0    0
  -24    2    1    2    0    0   -0.1016718292E+02    0.2961580276E+01   -0.6740098953E+01    0.7884384918E+02    0.7783817291E+02    0    0
   24    2    1    2    0    0    0.1016718006E+02   -0.2961579561E+01    0.6726342201E+01    0.8114238739E+02    0.8016670990E+02    0    0
   22    1    1    2    0    0    0.2412213689E-05   -0.7914206321E-06    0.1375650428E-01    0.1375650428E-01    0.0000000000E+00    0    0
   15    2    3    3    0    0   -0.1650333023E+02    0.3680673981E+02   -0.1387210369E+02    0.4269296265E+02    0.1777029991E+01    0    0
  -16    1    3    3    0    0    0.6290313721E+01   -0.3431194305E+02    0.7323574543E+01    0.3564424133E+02    0.0000000000E+00    0    0
   22    1    3    3    0    0    0.4583311453E-01    0.4667849541E+00   -0.1915693581E+00    0.5066435337E+00    0.0000000000E+00    0    0
   16    1    4    4    0    0   -0.1358085155E+02    0.2260480309E+02    0.2939744949E+02    0.3949211121E+02    0.0000000000E+00    0    0
  -15    2    4    4    0    0    0.2374803162E+02   -0.2556638336E+02   -0.2267110825E+02    0.4165028000E+02    0.1777029991E+01    0    0
   16    1    6    6    0    0   -0.1386732936E+01    0.3209781408E+01   -0.1214752316E+01    0.3701533079E+01    0.6282679969E-03    0    0
  -24    2    6    6    0    0   -0.1511723995E+02    0.3359839630E+02   -0.1265789318E+02    0.3899309540E+02    0.1690020084E+01    0    0
  310    1   12   12    0    0   -0.2429789782E+01    0.5694303036E+01   -0.2358960152E+01    0.6643898487E+01    0.4977199137E+00    0    0
 -211    1   12   12    0    0   -0.6499374866E+01    0.1483744907E+02   -0.5528520107E+01    0.1711653709E+02    0.1395679116E+00    0    0
  310    1   12   12    0    0   -0.6188077927E+01    0.1306664658E+02   -0.4770414829E+01    0.1523266697E+02    0.4977200031E+00    0    0
  -16    1   10   10    0    0    0.1647602916E+00   -0.8845683187E-01   -0.1810185313E+00    0.2602667212E+00    0.6969108363E-03    0    0
   24    2   10   10    0    0    0.2358420563E+02   -0.2547892952E+02   -0.2249098015E+02    0.4139165115E+02    0.1426171660E+01    0    0
  321    1   17   17    0    0    0.1052752686E+02   -0.1074996853E+02   -0.1009809017E+02    0.1812748718E+02    0.4936670661E+00    0    0
  211    1   17   17    0    0    0.1115666580E+02   -0.1245461941E+02   -0.1048955631E+02    0.1973927498E+02    0.1395679265E+00    0    0
 -211    1   17   17    0    0    0.1900011659E+01   -0.2274341822E+01   -0.1903332710E+01    0.3524887085E+01    0.1395679712E+00    0    0
</event>
<event>
   20 9999    1    0.9119999695E+02    0.7565275169E-02    0.1185000000E+00
   11   -1    0    0    0    0    0.0000000000E+00    0.0000000000E+00    0.8000000000E+02    0.8000000000E+02    0.5109988851E-03    0    0
  -11   -1    0    0    0    0    0.0000000000E+00    0.0000000000E+00   -0.8000000000E+02    0.8000000000E+02    0.5109988851E-03    0    0
  -24    2    1    2    0    0   -0.1325193024E+02    0.1078661156E+02    0.6105141830E+02    0.6788433838E+02    0.2427020454E+02    0    0
   24    2    1    2    0    0    0.1325193024E+02   -0.1078661156E+02   -0.6105141830E+02    0.9211566162E+02    0.6682854462E+02    0    0
   15    2    3    3    0    0   -0.1352823734E+02    0.1238805413E+01    0.5475725555E+02    0.5644521713E+02    0.1777029991E+01    0    0
  -16    1    3    3    0    0    0.2763068080E+00    0.9547805786E+01    0.6294165134E+01    0.1143912029E+02    0.0000000000E+00    0    0
   16    1    4    4    0    0   -0.1099938488E+02    0.1643689632E+01    0.1064458275E+02    0.1539465237E+02    0.0000000000E+00    0    0
  -15    2    4    4    0    0    0.2425131607E+02   -0.1243030167E+02   -0.7169599915E+02    0.7672100830E+02    0.1777029991E+01    0    0
   16    1    5    5    0    0   -0.8169177771E+00    0.2741573453E+00    0.4095595360E+01    0.4185262203E+01    0.0000000000E+00    0    0
  -24    2    5    5    0    0   -0.1271185207E+02    0.9646968246E+00    0.5066381454E+02    0.5226218033E+02    0.1411123991E+01    0    0
 -211    1   10   10    0    0   -0.2644982338E+01    0.9597381949E-01    0.1095291328E+02    0.1126902485E+02    0.1395680010E+00    0    0
 -211    1   10   10    0    0   -0.1081615567E+01    0.9536359459E-01    0.3391594172E+01    0.3563899040E+01    0.1395680159E+00    0    0
 -211    1   10   10    0    0   -0.5693596363E+01    0.4089861810E+00    0.2371659851E+02    0.2439427757E+02    0.1395680308E+00    0    0
  211    1   10   10    0    0   -0.2527406454E+01    0.2923606634E+00    0.9533579826E+01    0.9868225098E+01    0.1395680010E+00    0    0
  211    1   10   10    0    0   -0.7642511725E+00    0.7201257348E-01    0.3069131374E+01    0.3166751146E+01    0.1395679861E+00    0    0
  -16    1    8    8    0    0    0.2164269447E+01   -0.1082925081E+01   -0.5571902275E+01    0.6074774265E+01    0.4805912904E-03    0    0
   24    2    8    8    0    0    0.2208799934E+02   -0.1134786510E+02   -0.6612692261E+02    0.7064925385E+02    0.1376064777E+01    0    0
  111    1   17   17    0    0    0.7178201675E+00   -0.2980454862E+00   -0.2412473440E+01    0.2538176537E+01    0.1349640787E+00    0    0
  111    1   17   17    0    0    0.1188187313E+02   -0.6011427879E+01   -0.3582802582E+02    0.3822279358E+02    0.1349640936E+00    0    0
  321    1   17   17    0    0    0.9488308907E+01   -0.5038392544E+01   -0.2788642693E+02    0.2988829041E+02    0.4936670363E+00    0    0
</event>
<event>
   25 9999    1    0.9119999695E+02    0.7565275169E-02    0.1185000000E+00
   11   -1    0    0    0    0    0.0000000000E+00    0.0000000000E+00    0.8000000000E+02    0.8000000000E+02    0.5109988851E-03    0    0
  -11   -1    0    0    0    0    0.0000000000E+00    0.0000000000E+00   -0.8000000000E+02    0.8000000000E+02    0.5109988851E-03    0    0
  -24    2    1    2    0    0    0.9181367874E+01    0.2779175758E+01   -0.1928358436E+01    0.7987763977E+02    0.7927608490E+02    0    0
   24    2    1    2    0    0   -0.9181715012E+01   -0.2779604197E+01    0.1955853939E+01    0.8009486389E+02    0.7949422455E+02    0    0
   22    1    1    2    0    0    0.3468912619E-03    0.4284782917E-03   -0.2749550343E-01    0.2750102989E-01    0.0000000000E+00    0    0
   15    2    3    3    0    0   -0.2516780663E+02   -0.1918042183E+02   -0.8582561493E+01    0.3283481598E+02    0.1777029991E+01    0    0
  -16    1    3    3    0    0    0.3577510452E+02    0.2351976967E+02    0.9141217232E+01    0.4377898407E+02    0.0000000000E+00    0    0
   22    1    3    3    0    0   -0.1425928235E+01   -0.1560171247E+01   -0.2487014055E+01    0.3263838768E+01    0.0000000000E+00    0    0
   16    1    4    4    0    0   -0.3315961838E+02   -0.2875190353E+02   -0.4496515274E+01    0.4411860275E+02    0.0000000000E+00    0    0
  -15    2    4    4    0    0    0.2397790527E+02    0.2597229958E+02    0.6452369213E+01    0.3597625732E+02    0.1777029991E+01    0    0
   16    1    6    6    0    0   -0.7088370323E+01   -0.5329696655E+01   -0.2154965401E+01    0.9126582146E+01    0.2441406250E-03    0    0
  -24    2    6    6    0    0   -0.1808036804E+02   -0.1385143566E+02   -0.6427916527E+01    0.2370944595E+02    0.1434559464E+01    0    0
 -211    1   12   12    0    0   -0.3877975464E+01   -0.2784288883E+01   -0.1124653220E+01    0.4906655788E+01    0.1395674050E+00    0    0
 -211    1   12   12    0    0   -0.6113954067E+01   -0.4337278366E+01   -0.2253286362E+01    0.7828740597E+01    0.1395678967E+00    0    0
  211    1   12   12    0    0   -0.4925785542E+01   -0.4135968208E+01   -0.1937173009E+01    0.6718756676E+01    0.1395680159E+00    0    0
  111    1   12   12    0    0   -0.2324059725E+01   -0.1862253189E+01   -0.9014240503E+00    0.3114485025E+01    0.1349639893E+00    0    0
  111    1   12   12    0    0   -0.8385941982E+00   -0.7316485047E+00   -0.2113803774E+00    0.1140809417E+01    0.1349636316E+00    0    0
  -16    1   10   10    0    0    0.2991970301E+01    0.2915416718E+01    0.6688493490E+00    0.4230709076E+01    0.3051757812E-04    0    0
   24    2   10   10    0    0    0.2098687744E+02    0.2305790329E+02    0.5783773422E+01    0.3174696350E+02    0.1517139435E+01    0    0
  211    1   19   19    0    0    0.5922452211E+00    0.6405852437E+00    0.5507379025E-01    0.8852210045E+00    0.1395678818E+00    0    0
  211    1   19   19    0    0    0.2753814459E+01    0.3121798038E+01    0.6868216991E+00    0.4221412182E+01    0.1395679712E+00    0    0
 -211    1   19   19    0    0    0.4249483585E+01    0.4738336086E+01    0.1356297135E+01    0.6509144306E+01    0.1395679116E+00    0    0
  111    1   19   19    0    0    0.1756421208E+01    0.1950171947E+01    0.5243994594E+00    0.2679812670E+01    0.1349639893E+00    0    0
  111    1   19   19    0    0    0.8523540497E+01    0.9059729576E+01    0.2157755852E+01    0.1262551308E+02    0.1349639446E+00    0    0
  111    1   19   19    0    0    0.3111371040E+01    0.3547282457E+01    0.1003425121E+01    0.4825859547E+01    0.1349639446E+00    0    0
</event>
<event>
   19 9999    1    0.9119999695E+02    0.7565275169E-02    0.1185000000E+00
   11   -1    0    0    0    0    0.0000000000E+00    0.0000000000E+00    0.8000000000E+02    0.8000000000E+02    0.5109988851E-03    0    0
  -11   -1    0    0    0    0    0.0000000000E+00    0.0000000000E+00   -0.8000000000E+02    0.8000000000E+02    0.5109988851E-03    0    0
  -24    2    1    2    0    0    0.7433555126E+01   -0.2380290031E+01   -0.1250991154E+02    0.8164845276E+02    0.8030596924E+02    0    0
   24    2    1    2    0    0   -0.7432901859E+01    0.2379988194E+01    0.1252895451E+02    0.7833248901E+02    0.7692913055E+02    0    0
   22    1    1    2    0    0   -0.6532206316E-03    0.3018529387E-03   -0.1846725121E-01    0.1848126575E-01    0.0000000000E+00    0    0
   22    1    1    2    0    0    0.1453327414E-07   -0.6252103191E-07   -0.5756823230E-03    0.5756823230E-03    0.0000000000E+00    0    0
   15    2    3    3    0    0   -0.9465130806E+01    0.2323711014E+02   -0.3535499954E+02    0.4338992691E+02    0.1777029991E+01    0    0
  -16    1    3    3    0    0    0.1689868546E+02   -0.2561739922E+02    0.2284508896E+02    0.3825852585E+02    0.0000000000E+00    0    0
   16    1    4    4    0    0    0.2694772911E+02    0.2023858643E+02    0.1948790359E+02    0.3893017960E+02    0.0000000000E+00    0    0
  -15    2    4    4    0    0   -0.3438063049E+02   -0.1785859680E+02   -0.6958947659E+01    0.3940230942E+02    0.1777029991E+01    0    0
   16    1    7    7    0    0   -0.6208308220E+01    0.1547571373E+02   -0.2415422440E+02    0.2935076523E+02    0.2114319796E-03    0    0
 -323    2    7    7    0    0   -0.3257194996E+01    0.7762310982E+01   -0.1120216846E+02    0.1404087257E+02    0.8914774656E+00    0    0
 -211    1   12   12    0    0   -0.1104954123E+01    0.2696268797E+01   -0.4350235939E+01    0.5237825871E+01    0.1395679861E+00    0    0
  310    1   12   12    0    0   -0.2152241230E+01    0.5066042900E+01   -0.6851933956E+01    0.8803048134E+01    0.4977200329E+00    0    0
  -16    1   10   10    0    0   -0.2365233421E+01   -0.1427712917E+01   -0.3168236017E+00    0.2780839920E+01    0.4002342757E-03    0    0
   24    2   10   10    0    0   -0.3201675034E+02   -0.1643158722E+02   -0.6642398357E+01    0.3662302017E+02    0.1433477402E+01    0    0
  321    1   16   16    0    0   -0.1828122902E+02   -0.9648390770E+01   -0.3966651678E+01    0.2105404472E+02    0.4936671555E+00    0    0
  211    1   16   16    0    0   -0.1242424130E+01   -0.4573281705E+00   -0.1616254300E+00    0.1341032743E+01    0.1395680457E+00    0    0
 -211    1   16   16    0    0   -0.1249310017E+02   -0.6325870037E+01   -0.2514121532E+01    0.1422794724E+02    0.1395680606E+00    0    0
</event>
<event>
   22 9999    1    0.9119999695E+02    0.7565275169E-02    0.1185000000E+00
   11   -1    0    0    0    0    0.0000000000E+00    0.0000000000E+00    0.8000000000E+02    0.8000000000E+02    0.5109988851E-03    0    0
  -11   -1    0    0    0    0    0.0000000000E+00    0.0000000000E+00   -0.8000000000E+02    0.8000000000E+02    0.5109988851E-03    0    0
  -24    2    1    2    0    0    0.3537678719E+01   -0.8160395622E+01   -0.4884458542E+01    0.7674137115E+02    0.7606755829E+02    0    0
   24    2    1    2    0    0   -0.3546781540E+01    0.6293408871E+01    0.3937326431E+01    0.8116511536E+02    0.8074705505E+02    0    0
   22    1    1    2    0    0    0.9102954529E-02    0.1866987109E+01    0.9471320510E+00    0.2093509674E+01    0.0000000000E+00    0    0
   15    2    3    3    0    0    0.1664269829E+02    0.2756430626E+02   -0.1745171165E+02    0.3666729355E+02    0.1777029991E+01    0    0
  -16    1    3    3    0    0   -0.1310502052E+02   -0.3572470093E+02    0.1256725407E+02    0.4007407761E+02    0.0000000000E+00    0    0
   16    1    4    4    0    0   -0.3845928574E+02    0.1713796806E+02    0.1180367088E+02    0.4372817612E+02    0.0000000000E+00    0    0
  -15    2    4    4    0    0    0.3491250229E+02   -0.1084455967E+02   -0.7866343975E+01    0.3743694305E+02    0.1777029991E+01    0    0
   16    1    6    6    0    0    0.1668658972E+01    0.2213082075E+01   -0.1574764848E+01    0.3187795401E+01    0.3829925554E-03    0    0
  -24    2    6    6    0    0    0.1497469521E+02    0.2535231018E+02   -0.1587763405E+02    0.3348094177E+02    0.1375926971E+01    0    0
 -321    1   11   11    0    0    0.4885354519E+01    0.8838804245E+01   -0.5049696445E+01    0.1130195904E+02    0.4936668575E+00    0    0
 -211    1   11   11    0    0    0.6038599014E+01    0.9704818726E+01   -0.6528131962E+01    0.1316374493E+02    0.1395687312E+00    0    0
  211    1   11   11    0    0    0.4050739288E+01    0.6808682919E+01   -0.4299803257E+01    0.9015233994E+01    0.1395679861E+00    0    0
  -16    1    9    9    0    0    0.3827924252E+01   -0.1135902882E+01   -0.1069077849E+01    0.4133546829E+01    0.6103515625E-04    0    0
   24    2    9    9    0    0    0.3108595276E+02   -0.9709083557E+01   -0.6797575474E+01    0.3330486679E+02    0.1550617814E+01    0    0
  211    1   16   16    0    0    0.4351720810E+01   -0.1689919472E+01   -0.9542649388E+00    0.4766906738E+01    0.1395679116E+00    0    0
  211    1   16   16    0    0    0.4094625473E+01   -0.1260712981E+01   -0.1020102501E+01    0.4406295776E+01    0.1395679861E+00    0    0
  211    1   16   16    0    0    0.1520483112E+02   -0.4498919964E+01   -0.3361863613E+01    0.1620952797E+02    0.1395678371E+00    0    0
 -211    1   16   16    0    0    0.3218405485E+01   -0.1075194478E+01   -0.5878184438E+00    0.3446619511E+01    0.1395679563E+00    0    0
 -211    1   16   16    0    0    0.2809579849E+01   -0.7634745240E+00   -0.5699671507E+00    0.2970012665E+01    0.1395679861E+00    0    0
  111    1   16   16    0    0    0.1406789660E+01   -0.4208621085E+00   -0.3035588264E+00    0.1505504966E+01    0.1349639893E+00    0    0
</event>
<event>
   22 9999    1    0.9119999695E+02    0.7565275169E-02    0.1185000000E+00
   11   -1    0    0    0    0    0.0000000000E+00    0.0000000000E+00    0.8000000000E+02    0.8000000000E+02    0.5109988851E-03    0    0
  -11   -1    0    0    0    0    0.0000000000E+00    0.0000000000E+00   -0.8000000000E+02    0.8000000000E+02    0.5109988851E-03    0    0
  -24    2    1    2    0    0    0.1173166943E+02   -0.9922645569E+01   -0.8455801010E+01    0.8099977875E+02    0.7907826233E+02    0    0
   24    2    1    2    0    0   -0.1173167419E+02    0.9922955513E+01    0.8481018066E+01    0.7897460175E+02    0.7699975586E+02    0    0
   22    1    1    2    0    0   -0.2905848669E-03    0.9767356096E-04   -0.2510974929E-01    0.2511162125E-01    0.0000000000E+00    0    0
   22    1    1    2    0    0    0.2954412776E-03   -0.4073799355E-03   -0.1066771874E-03    0.5144161405E-03    0.0000000000E+00    0    0
   15    2    3    3    0    0    0.3892349720E+01   -0.2901194572E+02    0.2707357597E+02    0.3991215134E+02    0.1777029991E+01    0    0
  -16    1    3    3    0    0    0.7839320183E+01    0.1908930016E+02   -0.3552937698E+02    0.4108762360E+02    0.0000000000E+00    0    0
   16    1    4    4    0    0    0.6985432148E+01   -0.2853993797E+02    0.1887001610E+02    0.3491993332E+02    0.0000000000E+00    0    0
  -15    2    4    4    0    0   -0.1871710587E+02    0.3846289444E+02   -0.1038899803E+02    0.4405466461E+02    0.1777029991E+01    0    0
   16    1    7    7    0    0    0.4254322946E+00   -0.4713272095E+01    0.4201315403E+01    0.6328268528E+01    0.0000000000E+00    0    0
  -24    2    7    7    0    0    0.3467070341E+01   -0.2429981422E+02    0.2287332535E+02    0.3358544922E+02    0.1513931155E+01    0    0
 -211    1   12   12    0    0    0.1260923624E+01   -0.9070643425E+01    0.8432405472E+01    0.1244955540E+02    0.1395679861E+00    0    0
 -211    1   12   12    0    0    0.6941629052E+00   -0.4716090202E+01    0.4466428757E+01    0.6533898830E+01    0.1395679861E+00    0    0
  211    1   12   12    0    0    0.2738704681E+00   -0.2306496620E+01    0.2087693691E+01    0.3126159906E+01    0.1395679861E+00    0    0
  111    1   12   12    0    0    0.1240106076E+00   -0.1980283737E+01    0.1900587440E+01    0.2750881672E+01    0.1349639744E+00    0    0
  111    1   12   12    0    0    0.6255742908E+00   -0.2283629417E+01    0.2173067808E+01    0.3216635704E+01    0.1349639595E+00    0    0
  111    1   12   12    0    0    0.4885284901E+00   -0.3942670584E+01    0.3813142538E+01    0.5508319378E+01    0.1349639744E+00    0    0
  -16    1   10   10    0    0   -0.1067624211E+01    0.2776385546E+01   -0.1007122159E+01    0.3140450954E+01    0.1495049946E-03    0    0
  323    2   10   10    0    0   -0.1765022087E+02    0.3568802261E+02   -0.9382285118E+01    0.4091594696E+02    0.9603430033E+00    0    0
  211    1   20   20    0    0   -0.3118513107E+01    0.6693934441E+01   -0.1965566397E+01    0.7643089294E+01    0.1395680308E+00    0    0
  310    1   20   20    0    0   -0.1453170681E+02    0.2899408913E+02   -0.7416718960E+01    0.3327285767E+02    0.4977200925E+00    0    0
</event>
<event>
   20 9999    1    0.9119999695E+02    0.7565275169E-02    0.1185000000E+00
   11   -1    0    0    0    0    0.0000000000E+00    0.0000000000E+00    0.8000000000E+02    0.8000000000E+02    0.5109988851E-03    0    0
  -11   -1    0    0    0    0    0.0000000000E+00    0.0000000000E+00   -0.8000000000E+02    0.8000000000E+02    0.5109988851E-03    0    0
  -24    2    1    2    0    0    0.1477117729E+02   -0.7286986351E+01   -0.6668763161E+01    0.8188714600E+02    0.7993587494E+02    0    0
   24    2    1    2    0    0   -0.1473262691E+02    0.7258395195E+01    0.9664363861E+01    0.7511686707E+02    0.7265954590E+02    0    0
   22    1    1    2    0    0   -0.3855072334E-01    0.2859112062E-01   -0.2995600462E+01    0.2995985031E+01    0.0000000000E+00    0    0
   15    2    3    3    0    0    0.2697052383E+02    0.2579857826E+02   -0.2208267021E+02    0.4340251160E+02    0.1777029991E+01    0    0
  -16    1    3    3    0    0   -0.1219934559E+02   -0.3308556366E+02    0.1541390610E+02    0.3848463440E+02    0.0000000000E+00    0    0
   16    1    4    4    0    0   -0.2409066010E+02    0.3633120728E+02    0.4151396751E+01    0.4378984451E+02    0.0000000000E+00    0    0
  -15    2    4    4    0    0    0.9211997032E+01   -0.2811930466E+02    0.6003350258E+01    0.3024490356E+02    0.1777029991E+01    0    0
   22    1    4    4    0    0    0.1460373402E+00   -0.9535081387E+00   -0.4903833866E+00    0.1082118511E+01    0.0000000000E+00    0    0
   16    1    6    6    0    0    0.1315791368E+01    0.1485289454E+01   -0.1124761820E+01    0.2280894756E+01    0.2086608001E-03    0    0
  -24    2    6    6    0    0    0.2565579414E+02    0.2431430435E+02   -0.2095877838E+02    0.4112332535E+02    0.1565983772E+01    0    0
 -321    1   12   12    0    0    0.1307910347E+02    0.1208448792E+02   -0.1025581646E+02    0.2055537224E+02    0.4936671257E+00    0    0
 -211    1   12   12    0    0    0.1858379841E+01    0.1919651866E+01   -0.1411680818E+01    0.3025055408E+01    0.1395681500E+00    0    0
  321    1   12   12    0    0    0.1071831131E+02    0.1031016445E+02   -0.9291280746E+01    0.1754289818E+02    0.4936670363E+00    0    0
  -16    1    9    9    0    0    0.1542419910E+01   -0.3923084974E+01    0.8952747583E+00    0.4309428215E+01    0.4635759688E-03    0    0
   24    2    9    9    0    0    0.7669951916E+01   -0.2419736481E+02    0.5108320713E+01    0.2593670845E+02    0.1509050488E+01    0    0
  321    1   17   17    0    0    0.2971487284E+01   -0.8804039955E+01    0.1652573466E+01    0.9450691223E+01    0.4936669171E+00    0    0
  211    1   17   17    0    0    0.2563628674E+01   -0.7577391624E+01    0.1586996555E+01    0.8156414032E+01    0.1395689845E+00    0    0
 -321    1   17   17    0    0    0.2134834766E+01   -0.7815930367E+01    0.1868749738E+01    0.8329599380E+01    0.4936669767E+00    0    0
</event>
<event>
   13 9999    1    0.9119999695E+02    0.7565275169E-02    0.1185000000E+00
   11   -1    0    0    0    0    0.0000000000E+00    0.0000000000E+00    0.8000000000E+02    0.8000000000E+02    0.5109988851E-03    0    0
  -11   -1    0    0    0    0    0.0000000000E+00    0.0000000000E+00   -0.8000000000E+02    0.8000000000E+02    0.5109988851E-03    0    0
  -24    2    1    2    0    0   -0.4786351919E+00    0.2125843525E+01   -0.3809603453E+01    0.8098516083E+02    0.8086614990E+02    0    0
   24    2    1    2    0    0    0.4774237275E+00   -0.2125766039E+01   -0.4003221989E+01    0.7120201874E+02    0.7105599213E+02    0    0
   22    1    1    2    0    0    0.1211452996E-02   -0.7737374835E-04    0.7812825203E+01    0.7812825203E+01    0.0000000000E+00    0    0
   15    2    3    3    0    0   -0.3154501534E+02    0.2480054283E+02    0.7575656414E+01    0.4087423706E+02    0.1777029991E+01    0    0
  -16    1    3    3    0    0    0.3106637955E+02   -0.2267469978E+02   -0.1138525963E+02    0.4011092377E+02    0.0000000000E+00    0    0
   16    1    4    4    0    0    0.5545794010E+01    0.7159173965E+01    0.3219686127E+02    0.3344618988E+02    0.0000000000E+00    0    0
  -15    2    4    4    0    0   -0.5068370342E+01   -0.9284939766E+01   -0.3620008469E+02    0.3775582504E+02    0.1777029991E+01    0    0
   16    1    6    6    0    0   -0.1959121323E+02    0.1484171009E+02    0.3887592316E+01    0.2488383675E+02    0.0000000000E+00    0    0
 -211    1    6    6    0    0   -0.1195504475E+02    0.9959810257E+01    0.3688362360E+01    0.1599201107E+02    0.1395679563E+00    0    0
  -16    1    9    9    0    0   -0.1583104491E+01   -0.4292885303E+01   -0.1718833733E+02    0.1778690529E+02    0.4567452997E-03    0    0
  321    1    9    9    0    0   -0.3485465527E+01   -0.4992420673E+01   -0.1901317406E+02    0.1997040939E+02    0.4936669469E+00    0    0
</event>
<event>
   20 9999    1    0.9119999695E+02    0.7565275169E-02    0.1185000000E+00
   11   -1    0    0    0    0    0.0000000000E+00    0.0000000000E+00    0.8000000000E+02    0.8000000000E+02    0.5109988851E-03    0    0
  -11   -1    0    0    0    0    0.0000000000E+00    0.0000000000E+00   -0.8000000000E+02    0.8000000000E+02    0.5109988851E-03    0    0
  -24    2    1    2    0    0    0.4661940575E+01    0.6589160919E+01   -0.1295732403E+02    0.8029396057E+02    0.7882941437E+02    0    0
   24    2    1    2    0    0   -0.4661940575E+01   -0.6589160919E+01    0.1295732403E+02    0.7970603943E+02    0.7823049164E+02    0    0
   15    2    3    3    0    0   -0.5327610016E+01    0.4119154358E+02   -0.1506189156E+02    0.4421702194E+02    0.1777029991E+01    0    0
  -16    1    3    3    0    0    0.9989550591E+01   -0.3460238266E+02    0.2104568005E+01    0.3607693481E+02    0.0000000000E+00    0    0
   16    1    4    4    0    0   -0.2744786644E+02   -0.3726769686E+00    0.3692430496E+02    0.4601009369E+02    0.0000000000E+00    0    0
  -15    2    4    4    0    0    0.2278592491E+02   -0.6216483593E+01   -0.2396698189E+02    0.3369594955E+02    0.1777029991E+01    0    0
   16    1    5    5    0    0   -0.4655329287E+00    0.4575759411E+01   -0.1209279299E+01    0.4755696774E+01    0.0000000000E+00    0    0
*****    2    5    5    0    0   -0.4862287045E+01    0.3661740494E+02   -0.1385320568E+02    0.3946306610E+02    0.9726787806E+00    0    0
 -211    1   10   10    0    0   -0.1978108764E+01    0.1275241661E+02   -0.4839866161E+01    0.1378335285E+02    0.1395683289E+00    0    0
 -211    1   10   10    0    0   -0.1459957480E+01    0.1005681610E+02   -0.3718580484E+01    0.1082212257E+02    0.1395680010E+00    0    0
  211    1   10   10    0    0   -0.1424220085E+01    0.1380816746E+02   -0.5294756889E+01    0.1485758495E+02    0.1395679563E+00    0    0
  -16    1    8    8    0    0    0.6921051025E+01   -0.2127578974E+01   -0.7489744186E+01    0.1041747570E+02    0.7475249731E-04    0    0
   24    2    8    8    0    0    0.1586577129E+02   -0.4089149475E+01   -0.1647817993E+02    0.2327980042E+02    0.1405297041E+01    0    0
  211    1   15   15    0    0    0.6640171528E+01   -0.1535743833E+01   -0.7200749397E+01    0.9915677071E+01    0.1395680457E+00    0    0
  211    1   15   15    0    0    0.1858183980E+01   -0.5016835928E+00   -0.1838673472E+01    0.2665470600E+01    0.1395679861E+00    0    0
  211    1   15   15    0    0    0.1764778495E+01   -0.7476488948E+00   -0.1928749323E+01    0.2722677946E+01    0.1395679861E+00    0    0
 -211    1   15   15    0    0    0.1412422180E+01   -0.2866171002E+00   -0.1248341918E+01    0.1911785126E+01    0.1395679861E+00    0    0
 -211    1   15   15    0    0    0.4190214634E+01   -0.1017455816E+01   -0.4261665344E+01    0.6064188957E+01    0.1395679712E+00    0    0
</event>
<event>
   20 9999    1    0.9119999695E+02    0.7565275169E-02    0.1185000000E+00
   11   -1    0    0    0    0    0.0000000000E+00    0.0000000000E+00    0.8000000000E+02    0.8000000000E+02    0.5109988851E-03    0    0
  -11   -1    0    0    0    0    0.0000000000E+00    0.0000000000E+00   -0.8000000000E+02    0.8000000000E+02    0.5109988851E-03    0    0
  -24    2    1    2    0    0   -0.1982642555E+02   -0.2406836891E+02    0.2261597443E+02    0.8947356415E+02    0.8075681305E+02    0    0
   24    2    1    2    0    0    0.1982642555E+02    0.2406836891E+02   -0.2261597443E+02    0.7052643585E+02    0.5907725525E+02    0    0
   15    2    3    3    0    0    0.8017676353E+01   -0.4057060623E+02   -0.1097766304E+02    0.4282434082E+02    0.1777029991E+01    0    0
  -16    1    3    3    0    0   -0.2784410286E+02    0.1650223732E+02    0.3359363556E+02    0.4664922714E+02    0.0000000000E+00    0    0
   16    1    4    4    0    0   -0.1131919265E+01   -0.1651489639E+02    0.4786678314E+01    0.1723181152E+02    0.0000000000E+00    0    0
  -15    2    4    4    0    0    0.2095834541E+02    0.4058326340E+02   -0.2740265274E+02    0.5329462433E+02    0.1777029991E+01    0    0
   16    1    5    5    0    0    0.7113487925E-02   -0.4710272849E+00   -0.5543198809E-01    0.4743311405E+00    0.2642899744E-04    0    0
  -24    2    5    5    0    0    0.8010878563E+01   -0.4010117340E+02   -0.1092266273E+02    0.4235169220E+02    0.1443269253E+01    0    0
 -211    1   10   10    0    0    0.9680327177E+00   -0.5605502129E+01   -0.1554947138E+01    0.5898820400E+01    0.1395679861E+00    0    0
 -211    1   10   10    0    0    0.1884033084E+01   -0.9240929604E+01   -0.2613365650E+01    0.9787416458E+01    0.1395679563E+00    0    0
 -211    1   10   10    0    0    0.1663887739E+01   -0.7816154957E+01   -0.1739351869E+01    0.8179586411E+01    0.1395678520E+00    0    0
  211    1   10   10    0    0    0.1332668662E+01   -0.7171021938E+01   -0.2244208574E+01    0.7632530212E+01    0.1395678818E+00    0    0
  211    1   10   10    0    0    0.2162256002E+01   -0.1026756382E+02   -0.2770789385E+01    0.1085333920E+02    0.1395679712E+00    0    0
  -16    1    8    8    0    0    0.6261196613E+01    0.1188712215E+02   -0.8462460518E+01    0.1587827110E+02    0.2441406250E-03    0    0
   24    2    8    8    0    0    0.1469797325E+02    0.2869774055E+02   -0.1894127083E+02    0.3741844940E+02    0.1333383679E+01    0    0
  321    1   17   17    0    0    0.5930885315E+01    0.1187440968E+02   -0.8067062378E+01    0.1554021263E+02    0.4936670661E+00    0    0
  111    1   17   17    0    0    0.2428939581E+01    0.4967936516E+01   -0.3108969212E+01    0.6345395565E+01    0.1349637955E+00    0    0
  130    1   17   17    0    0    0.6338148594E+01    0.1185539436E+02   -0.7765239239E+01    0.1553284168E+02    0.4977200329E+00    0    0
</event>
<event>
   16 9999    1    0.9119999695E+02    0.7565275169E-02    0.1185000000E+00
   11   -1    0    0    0    0    0.0000000000E+00    0.0000000000E+00    0.8000000000E+02    0.8000000000E+02    0.5109988851E-03    0    0
  -11   -1    0    0    0    0    0.0000000000E+00    0.0000000000E+00   -0.8000000000E+02    0.8000000000E+02    0.5109988851E-03    0    0
  -24    2    1    2    0    0    0.6511658192E+01   -0.7846164703E+01   -0.3959931433E+00    0.8077074432E+02    0.8012361145E+02    0    0
   24    2    1    2    0    0   -0.6511658192E+01    0.7846164703E+01    0.3948136270E+00    0.7922807312E+02    0.7856823730E+02    0    0
   22    1    1    2    0    0   -0.1044416464E-06   -0.1075081073E-06    0.1179526560E-02    0.1179526560E-02    0.0000000000E+00    0    0
   15    2    3    3    0    0    0.2909826469E+02   -0.3408098221E+02   -0.7389744282E+01    0.4545314789E+02    0.1777029991E+01    0    0
  -16    1    3    3    0    0   -0.2258660698E+02    0.2623481750E+02    0.6993751049E+01    0.3531760025E+02    0.0000000000E+00    0    0
   16    1    4    4    0    0   -0.1359940147E+02    0.1391766357E+02    0.3678690338E+02    0.4161635590E+02    0.0000000000E+00    0    0
  -15    2    4    4    0    0    0.7087743282E+01   -0.6071498871E+01   -0.3639208984E+02    0.3761171341E+02    0.1777029991E+01    0    0
   16    1    6    6    0    0    0.1274895763E+02   -0.1400316334E+02   -0.2968284130E+01    0.1916860008E+02    0.2589502255E-03    0    0
 -213    2    6    6    0    0    0.1635045242E+02   -0.2007915878E+02   -0.4421751022E+01    0.2628633499E+02    0.9537249207E+00    0    0
 -211    1   11   11    0    0    0.1513164711E+02   -0.1857450485E+02   -0.3873786449E+01    0.2426941872E+02    0.1395677775E+00    0    0
  111    1   11   11    0    0    0.1218805552E+01   -0.1504653931E+01   -0.5479645133E+00    0.2016916037E+01    0.1349643171E+00    0    0
  -16    1    9    9    0    0    0.1686958909E+01   -0.1608482480E+01   -0.1178780365E+02    0.1201604652E+02    0.1726334885E-03    0    0
  -13    1    9    9    0    0    0.3733472347E+01   -0.3437358618E+01   -0.1861192703E+02    0.1929168892E+02    0.1056590676E+00    0    0
   14    1    9    9    0    0    0.1667590976E+01   -0.1025896788E+01   -0.5993790150E+01    0.6305461407E+01    0.1220703125E-03    0    0
</event>
<event>
   15 9999    1    0.9119999695E+02    0.7565275169E-02    0.1185000000E+00
   11   -1    0    0    0    0    0.0000000000E+00    0.0000000000E+00    0.8000000000E+02    0.8000000000E+02    0.5109988851E-03    0    0
  -11   -1    0    0    0    0    0.0000000000E+00    0.0000000000E+00   -0.8000000000E+02    0.8000000000E+02    0.5109988851E-03    0    0
  -24    2    1    2    0    0   -0.1832341576E+02   -0.1252093887E+02   -0.1253463936E+02    0.8329885864E+02    0.7930359650E+02    0    0
   24    2    1    2    0    0    0.1832341576E+02    0.1252093887E+02    0.1253463936E+02    0.7670114136E+02    0.7234243011E+02    0    0
   15    2    3    3    0    0    0.3047370338E+02   -0.1013846493E+02    0.2282887220E+01    0.3224599838E+02    0.1777029991E+01    0    0
  -16    1    3    3    0    0   -0.4879711914E+02   -0.2382473469E+01   -0.1481752682E+02    0.5105285645E+02    0.0000000000E+00    0    0
   16    1    4    4    0    0    0.4009642410E+02   -0.1242420101E+02    0.1151126385E+02    0.4352692413E+02    0.0000000000E+00    0    0
  -15    2    4    4    0    0   -0.2177300644E+02    0.2494513893E+02    0.1023375273E+01    0.3317422104E+02    0.1777029991E+01    0    0
   16    1    5    5    0    0    0.3839055777E+01   -0.1022200823E+01    0.3742641509E+00    0.3990403175E+01    0.5770163261E-03    0    0
  -24    2    5    5    0    0    0.2663584709E+02   -0.9116662979E+01    0.1908712864E+01    0.2825686455E+02    0.1491764784E+01    0    0
 -321    1   10   10    0    0    0.9297697067E+01   -0.3402693987E+01    0.7329438925E+00    0.9940140724E+01    0.4936671257E+00    0    0
 -211    1   10   10    0    0    0.8230854034E+01   -0.3023078680E+01    0.5830130577E+00    0.8788932800E+01    0.1395679116E+00    0    0
  321    1   10   10    0    0    0.9107292175E+01   -0.2690889120E+01    0.5927557945E+00    0.9527787209E+01    0.4936670065E+00    0    0
  -16    1    8    8    0    0   -0.1903389168E+02    0.2228338623E+02    0.1000464797E+01    0.2932301712E+02    0.3258385696E-03    0    0
  321    1    8    8    0    0   -0.2739973307E+01    0.2662734985E+01    0.2295076288E-01    0.3852511406E+01    0.4936670363E+00    0    0
</event>
<event>
   20 9999    1    0.9119999695E+02    0.7565275169E-02    0.1185000000E+00
   11   -1    0    0    0    0    0.0000000000E+00    0.0000000000E+00    0.8000000000E+02    0.8000000000E+02    0.5109988851E-03    0    0
  -11   -1    0    0    0    0    0.0000000000E+00    0.0000000000E+00   -0.8000000000E+02    0.8000000000E+02    0.5109988851E-03    0    0
  -24    2    1    2    0    0    0.2017462015E+01    0.7687551022E+01    0.6607959270E+01    0.7887390900E+02    0.7819373322E+02    0    0
   24    2    1    2    0    0   -0.2017459393E+01   -0.7687792778E+01   -0.6825575352E+01    0.8090847778E+02    0.8022730255E+02    0    0
   22    1    1    2    0    0   -0.2471909056E-05    0.2424050763E-03    0.2176161408E+00    0.2176162750E+00    0.0000000000E+00    0    0
   15    2    3    3    0    0   -0.3350972748E+02    0.8030346632E+00   -0.1495655632E+02    0.3674783325E+02    0.1777029991E+01    0    0
  -16    1    3    3    0    0    0.3552719116E+02    0.6884516716E+01    0.2156451607E+02    0.4212607574E+02    0.0000000000E+00    0    0
   16    1    4    4    0    0   -0.1469275475E+02   -0.3088731575E+02    0.2284334564E+02    0.4113054657E+02    0.0000000000E+00    0    0
  -15    2    4    4    0    0    0.1267529583E+02    0.2319952202E+02   -0.2966892052E+02    0.3977793121E+02    0.1777029991E+01    0    0
   16    1    6    6    0    0   -0.1824981880E+02    0.7429963350E+00   -0.8548494339E+01    0.2016642380E+02    0.1220703125E-03    0    0
  -24    2    6    6    0    0   -0.1526122856E+02    0.6006997451E-01   -0.6408651829E+01    0.1658285522E+02    0.1005751967E+01    0    0
  111    1   11   11    0    0   -0.5528720856E+01    0.3749462962E-01   -0.2548444271E+01    0.6089412212E+01    0.1349642277E+00    0    0
  111    1   11   11    0    0   -0.2246209621E+01    0.1082010269E+00   -0.8919731379E+00    0.2423013926E+01    0.1349641234E+00    0    0
  111    1   11   11    0    0   -0.4336740494E+01   -0.4037154093E-01   -0.1950493455E+01    0.4757266998E+01    0.1349638999E+00    0    0
 -211    1   11   11    0    0   -0.3149558544E+01   -0.4525411502E-01   -0.1017740846E+01    0.3313161850E+01    0.1395682245E+00    0    0
  -16    1    9    9    0    0    0.3308382034E+01    0.6213890553E+01   -0.8318802834E+01    0.1089772034E+02    0.2990099892E-03    0    0
   24    2    9    9    0    0    0.9367412567E+01    0.1698654556E+02   -0.2135128593E+02    0.2888177490E+02    0.1410097361E+01    0    0
  321    1   17   17    0    0    0.2875279188E+01    0.5422811985E+01   -0.6632749557E+01    0.9050480843E+01    0.4936670661E+00    0    0
  211    1   17   17    0    0    0.3993650913E+01    0.7158455849E+01   -0.9317252159E+01    0.1241061687E+02    0.1395678818E+00    0    0
 -321    1   17   17    0    0    0.2498483419E+01    0.4405279160E+01   -0.5401286125E+01    0.7420681000E+01    0.4936670065E+00    0    0
</event>
<event>
   15 9999    1    0.9119999695E+02    0.7565275169E-02    0.1185000000E+00
   11   -1    0    0    0    0    0.0000000000E+00    0.0000000000E+00    0.8000000000E+02    0.8000000000E+02    0.5109988851E-03    0    0
  -11   -1    0    0    0    0    0.0000000000E+00    0.0000000000E+00   -0.8000000000E+02    0.8000000000E+02    0.5109988851E-03    0    0
  -24    2    1    2    0    0   -0.3249692440E+01   -0.2621131659E+01    0.1857151866E+01    0.8058590698E+02    0.8045625305E+02    0    0
   24    2    1    2    0    0    0.3249692440E+01    0.2621131659E+01   -0.1857151866E+01    0.7941409302E+02    0.7928251648E+02    0    0
   15    2    3    3    0    0    0.1361907959E+02   -0.3814056396E+02   -0.4375022411E+01    0.4077352905E+02    0.1777029991E+01    0    0
  -16    1    3    3    0    0   -0.1686877251E+02    0.3551943207E+02    0.6232173920E+01    0.3981238174E+02    0.0000000000E+00    0    0
   16    1    4    4    0    0   -0.2091239357E+02    0.1189109707E+02    0.2992111206E+02    0.3839270020E+02    0.0000000000E+00    0    0
  -15    2    4    4    0    0    0.2416208649E+02   -0.9269965172E+01   -0.3177826309E+02    0.4102139282E+02    0.1777029991E+01    0    0
   16    1    5    5    0    0    0.7181508541E+01   -0.2263688087E+02   -0.2378011703E+01    0.2386749649E+02    0.1220703125E-03    0    0
 -211    1    5    5    0    0    0.6438107491E+01   -0.1550518703E+02   -0.1997182965E+01    0.1690763855E+02    0.1395680159E+00    0    0
  -16    1    8    8    0    0    0.4987833500E+01   -0.1858207822E+01   -0.6259729862E+01    0.8216790199E+01    0.1614838402E-03    0    0
   24    2    8    8    0    0    0.1917520523E+02   -0.7412122250E+01   -0.2551978493E+02    0.3280621719E+02    0.1536360145E+01    0    0
  221    1   12   12    0    0    0.1152453995E+02   -0.4900097370E+01   -0.1567126465E+02    0.2006777763E+02    0.5487999916E+00    0    0
  211    1   12   12    0    0    0.1304628253E+01   -0.5325750709E+00   -0.1452209353E+01    0.2028320074E+01    0.1395680606E+00    0    0
  111    1   12   12    0    0    0.6346037865E+01   -0.1979450226E+01   -0.8396312714E+01    0.1071012115E+02    0.1349639297E+00    0    0
</event>
<event>
   19 9999    1    0.9119999695E+02    0.7565275169E-02    0.1185000000E+00
   11   -1    0    0    0    0    0.0000000000E+00    0.0000000000E+00    0.8000000000E+02    0.8000000000E+02    0.5109988851E-03    0    0
  -11   -1    0    0    0    0    0.0000000000E+00    0.0000000000E+00   -0.8000000000E+02    0.8000000000E+02    0.5109988851E-03    0    0
  -24    2    1    2    0    0    0.2615784407E+01    0.1926661682E+02    0.2139400959E+01    0.7779329681E+02    0.7529392242E+02    0    0
   24    2    1    2    0    0   -0.2615778208E+01   -0.1926686859E+02   -0.2139496565E+01    0.8220643616E+02    0.7984526825E+02    0    0
   22    1    1    2    0    0   -0.6189584383E-05    0.2505903249E-03    0.9548987146E-04    0.2682389459E-03    0.0000000000E+00    0    0
   15    2    3    3    0    0   -0.2941266823E+02   -0.1560402393E+01   -0.1804164314E+02    0.3458610535E+02    0.1777029991E+01    0    0
  -16    1    3    3    0    0    0.3202845383E+02    0.2082701874E+02    0.2018104553E+02    0.4320718765E+02    0.0000000000E+00    0    0
   16    1    4    4    0    0   -0.3918497467E+02   -0.2073833466E+02   -0.8142814636E+01    0.4507600403E+02    0.0000000000E+00    0    0
  -15    2    4    4    0    0    0.3656919861E+02    0.1471467257E+01    0.6003318310E+01    0.3713043213E+02    0.1777029991E+01    0    0
   16    1    6    6    0    0   -0.9473857880E+01   -0.1876676977E+00   -0.5914582253E+01    0.1117011547E+02    0.6401421269E-03    0    0
  -24    2    6    6    0    0   -0.1993996811E+02   -0.1372795939E+01   -0.1212777042E+02    0.2341734886E+02    0.1342595816E+01    0    0
  221    1   11   11    0    0   -0.7278791428E+01   -0.4827980697E+00   -0.4316675186E+01    0.8494042397E+01    0.5487999916E+00    0    0
 -211    1   11   11    0    0   -0.3488369465E+01   -0.4795594811E+00   -0.2418484449E+01    0.4274019718E+01    0.1395680457E+00    0    0
  111    1   11   11    0    0   -0.9172805786E+01   -0.4104384184E+00   -0.5392610550E+01    0.1064928627E+02    0.1349640638E+00    0    0
  -16    1    9    9    0    0    0.2181899071E+01    0.3831087649E+00    0.5505423546E+00    0.2282663345E+01    0.3787131864E-03    0    0
   24    2    9    9    0    0    0.3438873672E+02    0.1088416457E+01    0.5453011990E+01    0.3484923172E+02    0.9816568494E+00    0    0
  211    1   16   16    0    0    0.6505556107E+01    0.1280861497E+00    0.9609528184E+00    0.6578873158E+01    0.1395680457E+00    0    0
  111    1   16   16    0    0    0.2128461456E+02    0.9529790282E+00    0.3175013542E+01    0.2154163170E+02    0.1349639595E+00    0    0
   22    1   16   16    0    0    0.6598566055E+01    0.7351183798E-02    0.1317045808E+01    0.6728724957E+01    0.1726334885E-03    0    0
</event>
<event>
   20 9999    1    0.9119999695E+02    0.7565275169E-02    0.1185000000E+00
   11   -1    0    0    0    0    0.0000000000E+00    0.0000000000E+00    0.8000000000E+02    0.8000000000E+02    0.5109988851E-03    0    0
  -11   -1    0    0    0    0    0.0000000000E+00    0.0000000000E+00   -0.8000000000E+02    0.8000000000E+02    0.5109988851E-03    0    0
  -24    2    1    2    0    0    0.1996914268E+01   -0.1273938847E+02    0.7119645119E+01    0.8130319977E+02    0.7995774841E+02    0    0
   24    2    1    2    0    0   -0.1996914268E+01    0.1273938847E+02   -0.7119645119E+01    0.7869680023E+02    0.7730599976E+02    0    0
   15    2    3    3    0    0    0.3056555557E+02   -0.1988721275E+02    0.2731346512E+02    0.4559536743E+02    0.1777029991E+01    0    0
  -16    1    3    3    0    0   -0.2856864166E+02    0.7147825241E+01   -0.2019382095E+02    0.3570782852E+02    0.0000000000E+00    0    0
   16    1    4    4    0    0    0.9862723351E+01   -0.3123410034E+02   -0.1730287671E+01    0.3279994202E+02    0.0000000000E+00    0    0
  -15    2    4    4    0    0   -0.1185963726E+02    0.4397348785E+02   -0.5389357567E+01    0.4589685822E+02    0.1777029991E+01    0    0
   16    1    5    5    0    0    0.5106183529E+01   -0.3147349834E+01    0.4102762222E+01    0.7267157555E+01    0.2441406250E-03    0    0
  -24    2    5    5    0    0    0.2546057510E+02   -0.1674064636E+02    0.2321177864E+02    0.3833000565E+02    0.1382964015E+01    0    0
  111    1   10   10    0    0    0.6497864246E+01   -0.3843292713E+01    0.5996750832E+01    0.9642218590E+01    0.1349640489E+00    0    0
  111    1   10   10    0    0    0.6706684113E+01   -0.4734876156E+01    0.5902905941E+01    0.1011242676E+02    0.1349634528E+00    0    0
 -321    1   10   10    0    0    0.1225602722E+02   -0.8162478447E+01    0.1131212330E+02    0.1857536316E+02    0.4936669469E+00    0    0
  -16    1    8    8    0    0   -0.3975126982E+01    0.1470251179E+02   -0.2089844227E+01    0.1537312317E+02    0.1220703125E-03    0    0
   24    2    8    8    0    0   -0.7884977818E+01    0.2927271080E+02   -0.3299725771E+01    0.3052554512E+02    0.1362445831E+01    0    0
  211    1   15   15    0    0   -0.7304973602E+00    0.3056712389E+01   -0.3126501143E+00    0.3161383629E+01    0.1395680010E+00    0    0
  211    1   15   15    0    0   -0.2611310720E+01    0.8744700432E+01   -0.7576373219E+00    0.9158723831E+01    0.1395680904E+00    0    0
  211    1   15   15    0    0   -0.2270668983E+01    0.8198557854E+01   -0.7845294476E+00    0.8544428825E+01    0.1395680308E+00    0    0
 -211    1   15   15    0    0   -0.1366597056E+01    0.5737879276E+01   -0.9431307912E+00    0.5974932671E+01    0.1395680606E+00    0    0
 -211    1   15   15    0    0   -0.9059037566E+00    0.3534860373E+01   -0.5017779469E+00    0.3686076641E+01    0.1395680159E+00    0    0
</event>
<event>
   23 9999    1    0.9119999695E+02    0.7565275169E-02    0.1185000000E+00
   11   -1    0    0    0    0    0.0000000000E+00    0.0000000000E+00    0.8000000000E+02    0.8000000000E+02    0.5109988851E-03    0    0
  -11   -1    0    0    0    0    0.0000000000E+00    0.0000000000E+00   -0.8000000000E+02    0.8000000000E+02    0.5109988851E-03    0    0
  -24    2    1    2    0    0   -0.6133693695E+01   -0.8806292534E+01    0.3881970596E+02    0.8861127472E+02    0.7892917633E+02    0    0
   24    2    1    2    0    0    0.6131915569E+01    0.8804697990E+01   -0.4023381424E+02    0.6978686523E+02    0.5600289154E+02    0    0
   22    1    1    2    0    0   -0.3349997132E-04    0.6278778892E-04    0.1238180280E+01    0.1238180280E+01    0.0000000000E+00    0    0
   22    1    1    2    0    0   -0.3465484187E-03    0.2568704804E-04    0.1810200363E+00    0.1810203642E+00    0.0000000000E+00    0    0
   22    1    1    2    0    0    0.2158217831E-02    0.1504008193E-02   -0.9377068281E-01    0.9380757809E-01    0.0000000000E+00    0    0
   22    1    1    2    0    0   -0.4722679847E-07    0.1746407861E-05    0.8876577020E-01    0.8876577020E-01    0.0000000000E+00    0    0
   22    1    1    2    0    0   -0.9962368708E-08   -0.2296881618E-07   -0.8992331277E-04    0.8992331277E-04    0.0000000000E+00    0    0
   15    2    3    3    0    0   -0.8464571953E+01    0.3415341949E+02    0.2577803230E+02    0.4365512466E+02    0.1777029991E+01    0    0
  -16    1    3    3    0    0    0.2330878496E+01   -0.4295971298E+02    0.1304167461E+02    0.4495614624E+02    0.0000000000E+00    0    0
   16    1    4    4    0    0    0.1295571327E+02    0.3048748779E+02   -0.1699744797E+02    0.3723238754E+02    0.0000000000E+00    0    0
  -15    2    4    4    0    0   -0.6823797703E+01   -0.2168278885E+02   -0.2323636627E+02    0.3255447769E+02    0.1777029991E+01    0    0
   16    1   10   10    0    0   -0.6810895205E+00    0.2522813320E+01    0.1609962106E+01    0.3069274902E+01    0.1614838402E-03    0    0
  -24    2   10   10    0    0   -0.7783815861E+01    0.3163195229E+02    0.2416908646E+02    0.4058757019E+02    0.1427540183E+01    0    0
  111    1   15   15    0    0   -0.2769667864E+01    0.1176332855E+02    0.9440144539E+01    0.1533562851E+02    0.1349640638E+00    0    0
  111    1   15   15    0    0   -0.9505706429E+00    0.3069582701E+01    0.2507268190E+01    0.4078054905E+01    0.1349640787E+00    0    0
 -321    1   15   15    0    0   -0.4063576698E+01    0.1679903793E+02    0.1222167206E+02    0.2117388344E+02    0.4936669171E+00    0    0
  -16    1   13   13    0    0   -0.9511216283E+00   -0.3796097279E+01   -0.4768006802E+01    0.6168377399E+01    0.3452669771E-03    0    0
20213    2   13   13    0    0   -0.5872944832E+01   -0.1788754463E+02   -0.1846927261E+02    0.2638738251E+02    0.8509774208E+00    0    0
  211    1   20   20    0    0   -0.9905794859E+00   -0.3663605690E+01   -0.3746293545E+01    0.5334552288E+01    0.1395680159E+00    0    0
  211    1   20   20    0    0   -0.4915841520E+00   -0.1726720333E+01   -0.1834938645E+01    0.2570933104E+01    0.1395681053E+00    0    0
 -211    1   20   20    0    0   -0.4390781403E+01   -0.1249722004E+02   -0.1288804150E+02    0.1848189926E+02    0.1395677477E+00    0    0
</event>
<event>
   18 9999    1    0.9119999695E+02    0.7565275169E-02    0.1185000000E+00
   11   -1    0    0    0    0    0.0000000000E+00    0.0000000000E+00    0.8000000000E+02    0.8000000000E+02    0.5109988851E-03    0    0
  -11   -1    0    0    0    0    0.0000000000E+00    0.0000000000E+00   -0.8000000000E+02    0.8000000000E+02    0.5109988851E-03    0    0
  -24    2    1    2    0    0    0.1426148319E+02   -0.1155885315E+02    0.9114503860E+01    0.8681350708E+02    0.8435943604E+02    0    0
   24    2    1    2    0    0   -0.1426148319E+02    0.1155885315E+02   -0.9114503860E+01    0.7318649292E+02    0.7025803375E+02    0    0
   15    2    3    3    0    0   -0.2590901566E+02   -0.7502474636E-01    0.3035185051E+02    0.3994590759E+02    0.1777029991E+01    0    0
  -16    1    3    3    0    0    0.4017049789E+02   -0.1148382854E+02   -0.2123734856E+02    0.4686760330E+02    0.0000000000E+00    0    0
   16    1    4    4    0    0   -0.3619256973E+02    0.3488699913E+01    0.1520573521E+02    0.3941176987E+02    0.0000000000E+00    0    0
  -15    2    4    4    0    0    0.2193108559E+02    0.8070153236E+01   -0.2432023811E+02    0.3377471924E+02    0.1777029991E+01    0    0
   16    1    5    5    0    0   -0.2032522678E+01    0.1329231560E+00    0.2541963339E+01    0.3257359982E+01    0.2157918607E-04    0    0
  -24    2    5    5    0    0   -0.2387751198E+02   -0.2079508454E+00    0.2781108093E+02    0.3669011688E+02    0.1590479374E+01    0    0
 -211    1   10   10    0    0   -0.8033679962E+01    0.1044708416E+00    0.9302553177E+01    0.1229259586E+02    0.1395679861E+00    0    0
 -211    1   10   10    0    0   -0.9835196137E+00   -0.7038546028E-03    0.1335151434E+01    0.1664157391E+01    0.1395679712E+00    0    0
 -211    1   10   10    0    0   -0.5123217583E+01    0.1611936986E+00    0.6025794506E+01    0.7912206650E+01    0.1395679563E+00    0    0
  211    1   10   10    0    0   -0.8750067711E+01   -0.4875836968E+00    0.1015468979E+02    0.1341412067E+02    0.1395680308E+00    0    0
  211    1   10   10    0    0   -0.9870271683E+00    0.1467219647E-01    0.9928923845E+00    0.1407036781E+01    0.1395679861E+00    0    0
  -16    1    8    8    0    0    0.7666661739E+01    0.3437068939E+01   -0.9561596870E+01    0.1272852230E+02    0.1726334885E-03    0    0
  -13    1    8    8    0    0    0.1256128311E+02    0.4220305443E+01   -0.1304246902E+02    0.1859338570E+02    0.1056594551E+00    0    0
   14    1    8    8    0    0    0.1704004288E+01    0.4130963683E+00   -0.1717129469E+01    0.2454142094E+01    0.0000000000E+00    0    0
</event>
<event>
   17 9999    1    0.9119999695E+02    0.7565275169E-02    0.1185000000E+00
   11   -1    0    0    0    0    0.0000000000E+00    0.0000000000E+00    0.8000000000E+02    0.8000000000E+02    0.5109988851E-03    0    0
  -11   -1    0    0    0    0    0.0000000000E+00    0.0000000000E+00   -0.8000000000E+02    0.8000000000E+02    0.5109988851E-03    0    0
  -24    2    1    2    0    0    0.1650760078E+02   -0.8991587639E+01    0.6121980667E+01    0.7697933960E+02    0.7439751434E+02    0    0
   24    2    1    2    0    0   -0.1650760078E+02    0.8991587639E+01   -0.6121980667E+01    0.8302066040E+02    0.8063251495E+02    0    0
   15    2    3    3    0    0   -0.1434809113E+02    0.8093312263E+01    0.3008030319E+02    0.3434169388E+02    0.1777029991E+01    0    0
  -16    1    3    3    0    0    0.3085569191E+02   -0.1708489990E+02   -0.2395832253E+02    0.4263764572E+02    0.0000000000E+00    0    0
   16    1    4    4    0    0    0.3947369814E+01   -0.3021836662E+02    0.1501374340E+02    0.3397269440E+02    0.0000000000E+00    0    0
  -15    2    4    4    0    0   -0.2045497131E+02    0.3920995331E+02   -0.2113572502E+02    0.4904796600E+02    0.1777029991E+01    0    0
   16    1    5    5    0    0   -0.1388029671E+02    0.7482364655E+01    0.2828469849E+02    0.3238321686E+02    0.1831054688E-03    0    0
 -211    1    5    5    0    0   -0.4683596790E+00    0.6112661362E+00    0.1796790123E+01    0.1959831953E+01    0.1395680755E+00    0    0
  -16    1    8    8    0    0   -0.9068455696E+01    0.1774273300E+02   -0.9827473640E+01    0.2221757698E+02    0.3955530119E-03    0    0
   24    2    8    8    0    0   -0.1138732052E+02    0.2146876335E+02   -0.1130908203E+02    0.2683231926E+02    0.1224405766E+01    0    0
  211    1   12   12    0    0   -0.1780595541E+01    0.2956592798E+01   -0.1530403137E+01    0.3778038263E+01    0.1395680308E+00    0    0
  211    1   12   12    0    0   -0.1671758890E+01    0.3384403467E+01   -0.1732988954E+01    0.4155922890E+01    0.1395680457E+00    0    0
 -211    1   12   12    0    0   -0.2805941105E+01    0.5179343224E+01   -0.2822518587E+01    0.6533375263E+01    0.1395680457E+00    0    0
  111    1   12   12    0    0   -0.4250430107E+01    0.8487043381E+01   -0.4547548771E+01    0.1052589607E+02    0.1349640489E+00    0    0
  111    1   12   12    0    0   -0.8785946965E+00    0.1461379528E+01   -0.6756225228E+00    0.1839086652E+01    0.1349638253E+00    0    0
</event>
<event>
   20 9999    1    0.9119999695E+02    0.7565275169E-02    0.1185000000E+00
   11   -1    0    0    0    0    0.0000000000E+00    0.0000000000E+00    0.8000000000E+02    0.8000000000E+02    0.5109988851E-03    0    0
  -11   -1    0    0    0    0    0.0000000000E+00    0.0000000000E+00   -0.8000000000E+02    0.8000000000E+02    0.5109988851E-03    0    0
  -24    2    1    2    0    0   -0.2287403822E+01   -0.1489792061E+02    0.2140447235E+02    0.7510312653E+02    0.7039280701E+02    0    0
   24    2    1    2    0    0    0.2229630232E+01    0.1504913139E+02   -0.2160259247E+02    0.8442420959E+02    0.8018309021E+02    0    0
   22    1    1    2    0    0    0.1066727117E+00   -0.1307627112E+00    0.3077017069E+00    0.3509391844E+00    0.0000000000E+00    0    0
   22    1    1    2    0    0   -0.4889921099E-01   -0.2044799738E-01   -0.1095815599E+00    0.1217266321E+00    0.0000000000E+00    0    0
   15    2    3    3    0    0   -0.3604679871E+02   -0.3258655548E+01    0.1205526447E+02    0.3819002151E+02    0.1777029991E+01    0    0
  -16    1    3    3    0    0    0.3375939560E+02   -0.1163926506E+02    0.9349207878E+01    0.3691310120E+02    0.0000000000E+00    0    0
   16    1    4    4    0    0   -0.1287048578E+01    0.1081056595E+02    0.3030179977E+02    0.3219819641E+02    0.0000000000E+00    0    0
  -15    2    4    4    0    0    0.3516678810E+01    0.4238564968E+01   -0.5190439224E+02    0.5222601318E+02    0.1777029991E+01    0    0
   16    1    7    7    0    0   -0.1130008817E+01   -0.8154382557E-01    0.6103119850E+00    0.1286876082E+01    0.4002342757E-03    0    0
*****    2    7    7    0    0   -0.3491821289E+02   -0.3177240133E+01    0.1144542789E+02    0.3690465164E+02    0.1256649375E+01    0    0
 -211    1   12   12    0    0   -0.1757261276E+02   -0.1565238714E+01    0.5739561081E+01    0.1855286407E+02    0.1395678967E+00    0    0
 -211    1   12   12    0    0   -0.9232402802E+01   -0.1268294096E+01    0.3110729694E+01    0.9825576782E+01    0.1395686269E+00    0    0
  211    1   12   12    0    0   -0.8113195419E+01   -0.3437072039E+00    0.2595136404E+01    0.8526211739E+01    0.1395680010E+00    0    0
  -16    1   10   10    0    0    0.7442541122E+00    0.3948739767E+00   -0.1010790157E+02    0.1014295387E+02    0.2114319796E-03    0    0
20213    2   10   10    0    0    0.2772563219E+01    0.3843858004E+01   -0.4179853439E+02    0.4208511353E+02    0.1255769134E+01    0    0
  211    1   17   17    0    0    0.1532294750E+01    0.1967355132E+01   -0.1866794777E+02    0.1883428192E+02    0.1395681500E+00    0    0
  211    1   17   17    0    0    0.4968397617E+00    0.1302641273E+01   -0.1266739559E+02    0.1274465084E+02    0.1395677477E+00    0    0
 -211    1   17   17    0    0    0.7434287071E+00    0.5738618374E+00   -0.1046319389E+02    0.1050618458E+02    0.1395679265E+00    0    0
</event>
<event>
   21 9999    1    0.9119999695E+02    0.7565275169E-02    0.1185000000E+00
   11   -1    0    0    0    0    0.0000000000E+00    0.0000000000E+00    0.8000000000E+02    0.8000000000E+02    0.5109988851E-03    0    0
  -11   -1    0    0    0    0    0.0000000000E+00    0.0000000000E+00   -0.8000000000E+02    0.8000000000E+02    0.5109988851E-03    0    0
  -24    2    1    2    0    0   -0.1317310143E+02   -0.2506547356E+02    0.1687460327E+02    0.8624279785E+02    0.7969478607E+02    0    0
   24    2    1    2    0    0    0.1317309952E+02    0.2506547737E+02   -0.1679010391E+02    0.7367269897E+02    0.6590865326E+02    0    0
   22    1    1    2    0    0    0.1369798383E-05   -0.3877852578E-05   -0.4873225838E-01    0.4873225838E-01    0.0000000000E+00    0    0
   22    1    1    2    0    0    0.5109631616E-06    0.9948984143E-06   -0.3576841578E-01    0.3576841578E-01    0.0000000000E+00    0    0
   15    2    3    3    0    0   -0.8815649986E+01   -0.5388498688E+02    0.5318830013E+01    0.5488856888E+02    0.1777029991E+01    0    0
  -16    1    3    3    0    0   -0.4357451916E+01    0.2881951332E+02    0.1155577374E+02    0.3135422707E+02    0.0000000000E+00    0    0
   16    1    4    4    0    0   -0.2594601250E+02    0.9044054985E+01    0.1632953763E+01    0.2752556992E+02    0.0000000000E+00    0    0
  -15    2    4    4    0    0    0.3911911011E+02    0.1602142143E+02   -0.1842305756E+02    0.4614712906E+02    0.1777029991E+01    0    0
   16    1    7    7    0    0   -0.3820073307E+00   -0.3607603073E+01    0.5234250426E+00    0.3665338039E+01    0.8631674427E-04    0    0
  -24    2    7    7    0    0   -0.8433989525E+01   -0.5027950668E+02    0.4795614719E+01    0.5122539520E+02    0.1371963024E+01    0    0
  111    1   12   12    0    0   -0.3901214838E+01   -0.2410334778E+02    0.2322418451E+01    0.2452759171E+02    0.1349634230E+00    0    0
  111    1   12   12    0    0   -0.2183177233E+01   -0.1424679661E+02    0.1244142890E+01    0.1446732807E+02    0.1349642724E+00    0    0
 -321    1   12   12    0    0   -0.2349597931E+01   -0.1192936325E+02    0.1229053497E+01    0.1223047829E+02    0.4936670065E+00    0    0
  -16    1   10   10    0    0    0.5610195637E+01    0.1819634676E+01   -0.2342240810E+01    0.6345979691E+01    0.3343033313E-03    0    0
   24    2   10   10    0    0    0.3351045609E+02    0.1420241642E+02   -0.1608154106E+02    0.3980296707E+02    0.1000484824E+01    0    0
  211    1   17   17    0    0    0.6359842777E+01    0.2819332600E+01   -0.3246611118E+01    0.7678294182E+01    0.1395679414E+00    0    0
  211    1   17   17    0    0    0.2019122839E+01    0.9188928604E+00   -0.1019365311E+01    0.2445364237E+01    0.1395681798E+00    0    0
 -211    1   17   17    0    0    0.1322502327E+02    0.5558259010E+01   -0.6378439426E+01    0.1570030117E+02    0.1395679414E+00    0    0
  111    1   17   17    0    0    0.1190646648E+02    0.4905932426E+01   -0.5437125683E+01    0.1397900867E+02    0.1349639893E+00    0    0
</event>
<event>
   17 9999    1    0.9119999695E+02    0.7565275169E-02    0.1185000000E+00
   11   -1    0    0    0    0    0.0000000000E+00    0.0000000000E+00    0.8000000000E+02    0.8000000000E+02    0.5109988851E-03    0    0
  -11   -1    0    0    0    0    0.0000000000E+00    0.0000000000E+00   -0.8000000000E+02    0.8000000000E+02    0.5109988851E-03    0    0
  -24    2    1    2    0    0    0.4309845865E+00    0.3542934656E+01   -0.2251810837E+02    0.8454973602E+02    0.8141777802E+02    0    0
   24    2    1    2    0    0   -0.4293779731E+00   -0.3546216726E+01    0.2207096863E+02    0.7499781036E+02    0.7158759308E+02    0    0
   22    1    1    2    0    0   -0.1713189879E-02    0.9455980035E-03    0.4492460787E+00    0.4492503405E+00    0.0000000000E+00    0    0
   22    1    1    2    0    0    0.1025652164E-03    0.2356388373E-02   -0.1983063761E-02    0.3081497736E-02    0.0000000000E+00    0    0
   22    1    1    2    0    0    0.4000737590E-05   -0.1991223508E-04   -0.1230372145E-03    0.1247022883E-03    0.0000000000E+00    0    0
   15    2    3    3    0    0   -0.1308154702E+01    0.3791950607E+02    0.7688994884E+01    0.3875407791E+02    0.1777029991E+01    0    0
  -16    1    3    3    0    0    0.1739139318E+01   -0.3437656784E+02   -0.3020710373E+02    0.4579565811E+02    0.0000000000E+00    0    0
   16    1    4    4    0    0    0.8334662437E+01    0.1082113457E+02    0.4470028305E+02    0.4674054718E+02    0.0000000000E+00    0    0
  -15    2    4    4    0    0   -0.8764039993E+01   -0.1436735153E+02   -0.2262931252E+02    0.2825726128E+02    0.1777029991E+01    0    0
   16    1    8    8    0    0   -0.8595893979E+00    0.2555152893E+02    0.5222509861E+01    0.2609394836E+02    0.1351932151E-03    0    0
   13    1    8    8    0    0   -0.3643796742E+00    0.4358796120E+01    0.1311883807E+01    0.4567721367E+01    0.1056591719E+00    0    0
  -14    1    8    8    0    0   -0.8423706144E-01    0.8010672569E+01    0.1154903769E+01    0.8093934059E+01    0.1220703125E-03    0    0
  -16    1   11   11    0    0   -0.7189966202E+01   -0.1198371792E+02   -0.1859633827E+02    0.2326217651E+02    0.2571456716E-03    0    0
  -11    1   11   11    0    0   -0.7289846539E+00   -0.9296041131E+00   -0.2267606258E+01    0.2556877136E+01    0.5179004511E-03    0    0
   12    1   11   11    0    0   -0.8454343081E+00   -0.1454595208E+01   -0.1766258717E+01    0.2439318895E+01    0.1220703125E-03    0    0
</event>
<event>
   20 9999    1    0.9119999695E+02    0.7565275169E-02    0.1185000000E+00
   11   -1    0    0    0    0    0.0000000000E+00    0.0000000000E+00    0.8000000000E+02    0.8000000000E+02    0.5109988851E-03    0    0
  -11   -1    0    0    0    0    0.0000000000E+00    0.0000000000E+00   -0.8000000000E+02    0.8000000000E+02    0.5109988851E-03    0    0
  -24    2    1    2    0    0    0.6384884834E+01   -0.2630112267E+02   -0.3137231350E+01    0.8580221558E+02    0.8136130524E+02    0    0
   24    2    1    2    0    0   -0.6384884834E+01    0.2630112267E+02    0.3137231350E+01    0.7419778442E+02    0.6901415253E+02    0    0
   15    2    3    3    0    0   -0.3106055450E+02   -0.3524522781E+02    0.1427010417E+01    0.4703379822E+02    0.1777029991E+01    0    0
  -16    1    3    3    0    0    0.3744543839E+02    0.8944104195E+01   -0.4564241886E+01    0.3876841736E+02    0.0000000000E+00    0    0
   16    1    4    4    0    0   -0.1023782825E+02   -0.1615260887E+02    0.2058989334E+02    0.2810095215E+02    0.0000000000E+00    0    0
  -15    2    4    4    0    0    0.3852943182E+01    0.4245373154E+02   -0.1745266151E+02    0.4609682846E+02    0.1777029991E+01    0    0
   16    1    5    5    0    0   -0.3689875126E+01   -0.4724260330E+01    0.4641551375E+00    0.6012424946E+01    0.1220703125E-03    0    0
  -24    2    5    5    0    0   -0.2737190056E+02   -0.3052235413E+02    0.9629114270E+00    0.4102322388E+02    0.1068983674E+01    0    0
 -321    1   10   10    0    0   -0.1454454231E+02   -0.1641103363E+02    0.6631295085E+00    0.2194422722E+02    0.4936669767E+00    0    0
  310    1   10   10    0    0   -0.1282735920E+02   -0.1411132145E+02    0.2997820079E+00    0.1907899666E+02    0.4977199733E+00    0    0
  -16    1    8    8    0    0    0.2057630867E+00    0.3475612640E+01   -0.1320214152E+01    0.3723598719E+01    0.0000000000E+00    0    0
   24    2    8    8    0    0    0.3647331715E+01    0.3897978973E+02   -0.1613313293E+02    0.4237504196E+02    0.1624627709E+01    0    0
  211    1   14   14    0    0    0.9848985672E+00    0.9989991188E+01   -0.4053357124E+01    0.1082677841E+02    0.1395679563E+00    0    0
  211    1   14   14    0    0    0.9338202477E+00    0.1058470917E+02   -0.4799634457E+01    0.1166036224E+02    0.1395679116E+00    0    0
  211    1   14   14    0    0    0.6367631555E+00    0.6038802147E+01   -0.2278659821E+01    0.6487246513E+01    0.1395679116E+00    0    0
 -211    1   14   14    0    0    0.2790812254E+00    0.2623724461E+01   -0.1098414660E+01    0.2861434937E+01    0.1395679861E+00    0    0
 -211    1   14   14    0    0    0.3764564395E+00    0.2533607006E+01   -0.9497440457E+00    0.2735393524E+01    0.1395679116E+00    0    0
  111    1   14   14    0    0    0.4363119900E+00    0.7208954334E+01   -0.2953322887E+01    0.7803827286E+01    0.1349639744E+00    0    0
</event>
<event>
   20 9999    1    0.9119999695E+02    0.7565275169E-02    0.1185000000E+00
   11   -1    0    0    0    0    0.0000000000E+00    0.0000000000E+00    0.8000000000E+02    0.8000000000E+02    0.5109988851E-03    0    0
  -11   -1    0    0    0    0    0.0000000000E+00    0.0000000000E+00   -0.8000000000E+02    0.8000000000E+02    0.5109988851E-03    0    0
  -24    2    1    2    0    0   -0.8885594368E+01   -0.2730925798E+01   -0.1111807346E+01    0.7934689331E+02    0.7879264832E+02    0    0
   24    2    1    2    0    0    0.8885537148E+01    0.2730981827E+01    0.1090849400E+01    0.8063214874E+02    0.8008709717E+02    0    0
   22    1    1    2    0    0   -0.2401442725E-04   -0.2190826672E-04    0.1558734011E-01    0.1558737457E-01    0.0000000000E+00    0    0
   22    1    1    2    0    0    0.8058484673E-04   -0.3403719529E-04    0.5370542407E-02    0.5371254869E-02    0.0000000000E+00    0    0
   15    2    3    3    0    0   -0.3756878281E+02    0.8216166496E+01   -0.1991639900E+02    0.4334443283E+02    0.1777029991E+01    0    0
  -16    1    3    3    0    0    0.2868319130E+02   -0.1094709301E+02    0.1880459213E+02    0.3600245667E+02    0.0000000000E+00    0    0
   16    1    4    4    0    0   -0.3080942154E+02   -0.1769538116E+02    0.4555894375E+01    0.3582043076E+02    0.0000000000E+00    0    0
  -15    2    4    4    0    0    0.3969495773E+02    0.2042636299E+02   -0.3465045214E+01    0.4481172180E+02    0.1777029991E+01    0    0
   16    1    7    7    0    0   -0.6684766412E+00    0.1718050390E+00   -0.5076948404E+00    0.8568152785E+00    0.5948971375E-03    0    0
  -24    2    7    7    0    0   -0.3690178680E+02    0.8044685364E+01   -0.1940948868E+02    0.4248932266E+02    0.1468154430E+01    0    0
  221    1   12   12    0    0   -0.1862105560E+02    0.3771058559E+01   -0.9778114319E+01    0.2137468719E+02    0.5487999916E+00    0    0
 -211    1   12   12    0    0   -0.1557425380E+01    0.1953788698E+00   -0.8384270072E+00    0.1784988999E+01    0.1395680010E+00    0    0
  111    1   12   12    0    0   -0.1672330284E+02    0.4078247547E+01   -0.8792946815E+01    0.1932964325E+02    0.1349639297E+00    0    0
  -16    1   10   10    0    0    0.2570739508E+01    0.1150509715E+01   -0.3255575597E+00    0.2835200548E+01    0.2571456716E-03    0    0
   24    2   10   10    0    0    0.3712578201E+02    0.1927665901E+02   -0.3139624119E+01    0.4197828674E+02    0.1551135182E+01    0    0
  221    1   17   17    0    0    0.1321089840E+02    0.7289192200E+01   -0.1254521608E+01    0.1515041828E+02    0.5488000512E+00    0    0
  211    1   17   17    0    0    0.4992010117E+01    0.2578689575E+01   -0.1329157799E+00    0.5622005939E+01    0.1395679116E+00    0    0
  111    1   17   17    0    0    0.1892287445E+02    0.9408775330E+01   -0.1752186656E+01    0.2120586205E+02    0.1349638849E+00    0    0
</event>
<event>
   17 9999    1    0.9119999695E+02    0.7565275169E-02    0.1185000000E+00
   11   -1    0    0    0    0    0.0000000000E+00    0.0000000000E+00    0.8000000000E+02    0.8000000000E+02    0.5109988851E-03    0    0
  -11   -1    0    0    0    0    0.0000000000E+00    0.0000000000E+00   -0.8000000000E+02    0.8000000000E+02    0.5109988851E-03    0    0
  -24    2    1    2    0    0    0.1754359055E+02    0.3195218325E+01    0.6287892818E+01    0.7780213165E+02    0.7546951294E+02    0    0
   24    2    1    2    0    0   -0.1754357147E+02   -0.3195267916E+01   -0.6100339413E+01    0.8201031494E+02    0.7981535339E+02    0    0
   22    1    1    2    0    0   -0.1832076669E-04    0.4960896331E-04   -0.1875534058E+00    0.1875534058E+00    0.0000000000E+00    0    0
   15    2    3    3    0    0   -0.2688081169E+02   -0.1336032391E+02    0.4030751228E+01    0.3033943176E+02    0.1777029991E+01    0    0
  -16    1    3    3    0    0    0.4442440414E+02    0.1655554199E+02    0.2257141829E+01    0.4746270370E+02    0.0000000000E+00    0    0
   16    1    4    4    0    0   -0.4196583176E+02    0.1882429886E+02   -0.1412688351E+02    0.4811500931E+02    0.0000000000E+00    0    0
  -15    2    4    4    0    0    0.2442226028E+02   -0.2201956749E+02    0.8026544571E+01    0.3389530182E+02    0.1777029991E+01    0    0
   16    1    6    6    0    0   -0.5122529507E+01   -0.3090427876E+01    0.9123987556E+00    0.6051737309E+01    0.1012153589E-03    0    0
  -24    2    6    6    0    0   -0.2175934219E+02   -0.1027042198E+02    0.3118511200E+01    0.2428888893E+02    0.1128944397E+01    0    0
 -321    1   11   11    0    0   -0.9173022270E+01   -0.4055280685E+01    0.1246217370E+01    0.1011861610E+02    0.4936670065E+00    0    0
  310    1   11   11    0    0   -0.1258631992E+02   -0.6215141296E+01    0.1872293711E+01    0.1417027378E+02    0.4977201223E+00    0    0
  -16    1    9    9    0    0    0.1751056671E+02   -0.1524092865E+02    0.5283988953E+01    0.2380811691E+02    0.2729575208E-03    0    0
  213    2    9    9    0    0    0.6912655354E+01   -0.6779506683E+01    0.2742871523E+01    0.1008852005E+02    0.7130017877E+00    0    0
  211    1   15   15    0    0    0.5723593712E+01   -0.5638693810E+01    0.2031259060E+01    0.8288539886E+01    0.1395680755E+00    0    0
  111    1   15   15    0    0    0.1189061999E+01   -0.1140812993E+01    0.7116127014E+00    0.1799980760E+01    0.1349638402E+00    0    0
</event>
<event>
   21 9999    1    0.9119999695E+02    0.7565275169E-02    0.1185000000E+00
   11   -1    0    0    0    0    0.0000000000E+00    0.0000000000E+00    0.8000000000E+02    0.8000000000E+02    0.5109988851E-03    0    0
  -11   -1    0    0    0    0    0.0000000000E+00    0.0000000000E+00   -0.8000000000E+02    0.8000000000E+02    0.5109988851E-03    0    0
  -24    2    1    2    0    0    0.2108711958E+01   -0.1461781597E+02    0.4286937714E+01    0.7225823975E+02    0.7060274506E+02    0    0
   24    2    1    2    0    0   -0.2072944403E+01    0.1471666241E+02   -0.9786637306E+01    0.8224105835E+02    0.8029281616E+02    0    0
   22    1    1    2    0    0   -0.3576770797E-01   -0.9884667397E-01    0.5499699593E+01    0.5500704288E+01    0.0000000000E+00    0    0
   15    2    3    3    0    0    0.2508419800E+02   -0.3288486481E+02    0.9430948257E+01    0.4245859146E+02    0.1777029991E+01    0    0
  -16    1    3    3    0    0   -0.2297548676E+02    0.1826704788E+02   -0.5144011021E+01    0.2979964638E+02    0.0000000000E+00    0    0
   16    1    4    4    0    0   -0.2438588905E+02   -0.2307623672E+02    0.8546828270E+01    0.3464437103E+02    0.0000000000E+00    0    0
  -15    2    4    4    0    0    0.2231294441E+02    0.3779290009E+02   -0.1833346558E+02    0.4759668732E+02    0.1777029991E+01    0    0
   16    1    6    6    0    0    0.4381814480E+01   -0.5577662945E+01    0.1684153557E+01    0.7290198803E+01    0.6473755639E-04    0    0
  -24    2    6    6    0    0    0.2070336914E+02   -0.2730849457E+02    0.7747165680E+01    0.3517005920E+02    0.1590993047E+01    0    0
 -211    1   11   11    0    0    0.8677688241E+00   -0.9713900685E+00    0.2435810715E+00    0.1332453489E+01    0.1395678967E+00    0    0
 -211    1   11   11    0    0    0.2256320477E+01   -0.3168774843E+01    0.9623364210E+00    0.4009699345E+01    0.1395679712E+00    0    0
 -211    1   11   11    0    0    0.9247329712E+01   -0.1189011192E+02    0.3686265469E+01    0.1550792980E+02    0.1395678967E+00    0    0
  211    1   11   11    0    0    0.5835666656E+01   -0.8231187820E+01    0.2032060862E+01    0.1029350281E+02    0.1395677477E+00    0    0
  211    1   11   11    0    0    0.2496282578E+01   -0.3047029257E+01    0.8229215145E+00    0.4026473999E+01    0.1395679563E+00    0    0
  -16    1    9    9    0    0    0.7352530003E+01    0.1271698570E+02   -0.6724881172E+01    0.1615566254E+02    0.3452669771E-03    0    0
20213    2    9    9    0    0    0.1496129227E+02    0.2507740211E+02   -0.1160930538E+02    0.3144289589E+02    0.1078619242E+01    0    0
  111    1   18   18    0    0    0.5367888212E+00    0.9731393456E+00   -0.4987466931E+00    0.1225604296E+01    0.1349639744E+00    0    0
  111    1   18   18    0    0    0.4533579826E+01    0.8081928253E+01   -0.3872739315E+01    0.1004426384E+02    0.1349641830E+00    0    0
  211    1   18   18    0    0    0.9890923500E+01    0.1602233315E+02   -0.7237819195E+01    0.2017302704E+02    0.1395679563E+00    0    0
</event>
<event>
   20 9999    1    0.9119999695E+02    0.7565275169E-02    0.1185000000E+00
   11   -1    0    0    0    0    0.0000000000E+00    0.0000000000E+00    0.8000000000E+02    0.8000000000E+02    0.5109988851E-03    0    0
  -11   -1    0    0    0    0    0.0000000000E+00    0.0000000000E+00   -0.8000000000E+02    0.8000000000E+02    0.5109988851E-03    0    0
  -24    2    1    2    0    0    0.2831918907E+02   -0.1570608139E+01    0.3994207382E+02    0.6346879959E+02    0.4035438156E+02    0    0
   24    2    1    2    0    0   -0.2832048035E+02    0.1567808867E+01   -0.3953217697E+02    0.9514311218E+02    0.8176130676E+02    0    0
   22    1    1    2    0    0   -0.9115989087E-03   -0.8247965598E-03   -0.8989756703E+00    0.8989765048E+00    0.0000000000E+00    0    0
   22    1    1    2    0    0    0.2207238693E-02    0.3620292293E-02    0.4890843630E+00    0.4891027510E+00    0.0000000000E+00    0    0
   15    2    3    3    0    0    0.2438128281E+02    0.1104014683E+02    0.6626991749E+01    0.2762981415E+02    0.1777029991E+01    0    0
  -16    1    3    3    0    0    0.3937906265E+01   -0.1261075497E+02    0.3331508255E+02    0.3583898544E+02    0.0000000000E+00    0    0
   16    1    4    4    0    0    0.2445874405E+02   -0.1028982735E+02   -0.3023280716E+02    0.4022602844E+02    0.0000000000E+00    0    0
  -15    2    4    4    0    0   -0.5277922440E+02    0.1185763645E+02   -0.9299369812E+01    0.5491708374E+02    0.1777029991E+01    0    0
   16    1    7    7    0    0    0.9291373253E+01    0.4304578781E+01    0.2333530664E+01    0.1050258923E+02    0.2862802648E-03    0    0
  -24    2    7    7    0    0    0.1509086895E+02    0.6736002922E+01    0.4293722153E+01    0.1712831306E+02    0.1354616523E+01    0    0
  111    1   12   12    0    0    0.4273296595E+00    0.2158683985E+00    0.4248315096E-01    0.4992293119E+00    0.1349640340E+00    0    0
  111    1   12   12    0    0    0.1314149499E+01    0.5818909407E+00    0.5841301084E+00    0.1557244062E+01    0.1349641085E+00    0    0
 -321    1   12   12    0    0    0.1334938812E+02    0.5938242912E+01    0.3667108536E+01    0.1507183743E+02    0.4936670959E+00    0    0
  -16    1   10   10    0    0   -0.1061044502E+02    0.2144950390E+01   -0.1829121470E+01    0.1097852612E+02    0.5967044854E-03    0    0
   24    2   10   10    0    0   -0.4217085648E+02    0.9713151932E+01   -0.7470613956E+01    0.4394071960E+02    0.1500093102E+01    0    0
  221    1   17   17    0    0   -0.2289981461E+02    0.5339289665E+01   -0.3821745634E+01    0.2382889938E+02    0.5488000512E+00    0    0
  211    1   17   17    0    0   -0.1507374287E+02    0.3688133717E+01   -0.3028529167E+01    0.1581175232E+02    0.1395677477E+00    0    0
  111    1   17   17    0    0   -0.4197295666E+01    0.6857284904E+00   -0.6203386784E+00    0.4300064087E+01    0.1349640787E+00    0    0
</event>
<event>
   18 9999    1    0.9119999695E+02    0.7565275169E-02    0.1185000000E+00
   11   -1    0    0    0    0    0.0000000000E+00    0.0000000000E+00    0.8000000000E+02    0.8000000000E+02    0.5109988851E-03    0    0
  -11   -1    0    0    0    0    0.0000000000E+00    0.0000000000E+00   -0.8000000000E+02    0.8000000000E+02    0.5109988851E-03    0    0
  -24    2    1    2    0    0    0.4535143852E+01    0.1365922689E+01    0.8836536407E+01    0.7933448792E+02    0.7869843292E+02    0    0
   24    2    1    2    0    0   -0.4535143852E+01   -0.1365922689E+01   -0.8836536407E+01    0.8066551208E+02    0.8004003143E+02    0    0
   15    2    3    3    0    0    0.8557015419E+01    0.1213028908E+02    0.4111573410E+02    0.4374960327E+02    0.1777029991E+01    0    0
  -16    1    3    3    0    0   -0.3754014254E+01   -0.1076551533E+02   -0.3294776535E+02    0.3486465454E+02    0.0000000000E+00    0    0
   22    1    3    3    0    0   -0.2678574622E+00    0.1149129821E-02    0.6685687304E+00    0.7202312946E+00    0.0000000000E+00    0    0
   16    1    4    4    0    0    0.3057038879E+02    0.1668930054E+02    0.1089920902E+02    0.3649485016E+02    0.0000000000E+00    0    0
  -15    2    4    4    0    0   -0.3510553360E+02   -0.1805522346E+02   -0.1973574448E+02    0.4417065811E+02    0.1777029991E+01    0    0
   16    1    5    5    0    0    0.1558606148E+01    0.2281580210E+01    0.6538428783E+01    0.7098303318E+01    0.1220703125E-03    0    0
  -24    2    5    5    0    0    0.6998733997E+01    0.9849168777E+01    0.3457886124E+02    0.3665295792E+02    0.1324078083E+01    0    0
 -321    1   11   11    0    0    0.3900447607E+01    0.4749200821E+01    0.1782478142E+02    0.1886093521E+02    0.4936669767E+00    0    0
  310    1   11   11    0    0    0.3098285198E+01    0.5099967003E+01    0.1675408173E+02    0.1779202080E+02    0.4977200031E+00    0    0
  -16    1    9    9    0    0   -0.1121282578E+02   -0.5989906788E+01   -0.6037353516E+01    0.1407324028E+02    0.4048614355E-03    0    0
   24    2    9    9    0    0   -0.2389408875E+02   -0.1206602669E+02   -0.1369916821E+02    0.3009915543E+02    0.1332478285E+01    0    0
  321    1   15   15    0    0   -0.1177995014E+02   -0.5608850479E+01   -0.6986042500E+01    0.1480793476E+02    0.4936671555E+00    0    0
  211    1   15   15    0    0   -0.6808990955E+01   -0.3531816006E+01   -0.3503721714E+01    0.8433957100E+01    0.1395678520E+00    0    0
 -211    1   15   15    0    0   -0.5305150509E+01   -0.2925361395E+01   -0.3209405184E+01    0.6857267857E+01    0.1395679861E+00    0    0
</event>
<event>
   18 9999    1    0.9119999695E+02    0.7565275169E-02    0.1185000000E+00
   11   -1    0    0    0    0    0.0000000000E+00    0.0000000000E+00    0.8000000000E+02    0.8000000000E+02    0.5109988851E-03    0    0
  -11   -1    0    0    0    0    0.0000000000E+00    0.0000000000E+00   -0.8000000000E+02    0.8000000000E+02    0.5109988851E-03    0    0
  -24    2    1    2    0    0   -0.1915347290E+02   -0.7653333187E+01    0.1160568810E+02    0.8020990753E+02    0.7663881683E+02    0    0
   24    2    1    2    0    0    0.1915347290E+02    0.7653333187E+01   -0.1160568810E+02    0.7979009247E+02    0.7619932556E+02    0    0
   15    2    3    3    0    0   -0.3538317490E+02   -0.2446006775E+02    0.2272832489E+02    0.4868263245E+02    0.1777029991E+01    0    0
  -16    1    3    3    0    0    0.1813756371E+02    0.1841525459E+02   -0.1246228981E+02    0.2869497299E+02    0.0000000000E+00    0    0
   22    1    3    3    0    0   -0.1907862067E+01   -0.1608519793E+01    0.1339652419E+01    0.2832303286E+01    0.0000000000E+00    0    0
   16    1    4    4    0    0   -0.2413867378E+02    0.6964523792E+01    0.1468894291E+02    0.2910232353E+02    0.0000000000E+00    0    0
  -15    2    4    4    0    0    0.4329214859E+02    0.6888093352E+00   -0.2629463005E+02    0.5068776703E+02    0.1777029991E+01    0    0
   16    1    5    5    0    0   -0.2506275368E+02   -0.1685518074E+02    0.1628876305E+02    0.3431563187E+02    0.1726334885E-03    0    0
 -213    2    5    5    0    0   -0.1032178593E+02   -0.7605827332E+01    0.6440438271E+01    0.1436887550E+02    0.7729671001E+00    0    0
 -211    1   11   11    0    0   -0.8328270912E+01   -0.6187051773E+01    0.5505261898E+01    0.1174593925E+02    0.1395679712E+00    0    0
  111    1   11   11    0    0   -0.1993516207E+01   -0.1418776989E+01    0.9351776242E+00    0.2622938871E+01    0.1349640638E+00    0    0
  -16    1    9    9    0    0    0.1354256153E+02    0.1134158373E+00   -0.8281879425E+01    0.1587461376E+02    0.5734747392E-03    0    0
   24    2    9    9    0    0    0.2975128746E+02    0.5754205585E+00   -0.1801378632E+02    0.3481514740E+02    0.1458710432E+01    0    0
  321    1   15   15    0    0    0.1700011444E+02    0.2274631858E+00   -0.1011069965E+02    0.1978700638E+02    0.4936670065E+00    0    0
  211    1   15   15    0    0    0.8015656471E+01    0.5875614882E+00   -0.4923496246E+01    0.9426360130E+01    0.1395675391E+00    0    0
 -211    1   15   15    0    0    0.4735514641E+01   -0.2396040857E+00   -0.2979588747E+01    0.5601779938E+01    0.1395680457E+00    0    0
</event>
<event>
   20 9999    1    0.9119999695E+02    0.7565275169E-02    0.1185000000E+00
   11   -1    0    0    0    0    0.0000000000E+00    0.0000000000E+00    0.8000000000E+02    0.8000000000E+02    0.5109988851E-03    0    0
  -11   -1    0    0    0    0    0.0000000000E+00    0.0000000000E+00   -0.8000000000E+02    0.8000000000E+02    0.5109988851E-03    0    0
  -24    2    1    2    0    0   -0.1121486282E+02    0.1073397350E+02   -0.6778393745E+01    0.8085500336E+02    0.7906069183E+02    0    0
   24    2    1    2    0    0    0.1121401501E+02   -0.1073313141E+02    0.5283320427E+01    0.7681955719E+02    0.7504916382E+02    0    0
   22    1    1    2    0    0    0.7761453162E-03    0.1264596212E-03    0.1909856677E+01    0.1909856796E+01    0.0000000000E+00    0    0
   22    1    1    2    0    0   -0.2068094327E-03   -0.4832152918E-03   -0.4149886072E+00    0.4149889350E+00    0.0000000000E+00    0    0
   22    1    1    2    0    0    0.2777743503E-03   -0.4861765192E-03    0.2052831696E-03    0.5963785225E-03    0.0000000000E+00    0    0
   15    2    3    3    0    0    0.2959083080E+01   -0.3237115479E+02    0.7265774727E+01    0.3335561752E+02    0.1777029991E+01    0    0
  -16    1    3    3    0    0   -0.1417394543E+02    0.4310512924E+02   -0.1404416847E+02    0.4749938583E+02    0.0000000000E+00    0    0
   16    1    4    4    0    0   -0.9251983643E+01   -0.3151045418E+02    0.2525433540E+02    0.4142812347E+02    0.0000000000E+00    0    0
  -15    2    4    4    0    0    0.2046599960E+02    0.2077732277E+02   -0.1997101593E+02    0.3539143372E+02    0.1777029991E+01    0    0
   16    1    8    8    0    0    0.2525755405E+01   -0.2814683533E+02    0.6334664822E+01    0.2896121216E+02    0.4855317093E-04    0    0
   13    1    8    8    0    0    0.3389253020E+00   -0.1039247751E+01    0.3703316748E+00    0.1158971786E+01    0.1056588963E+00    0    0
  -14    1    8    8    0    0    0.9451892972E-01   -0.3186345816E+01    0.5610637665E+00    0.3236746311E+01    0.6103515625E-04    0    0
  -16    1   11   11    0    0    0.6833508611E-02    0.6701944768E-01   -0.1210359707E+00    0.1385203600E+00    0.3445919720E-03    0    0
   24    2   11   11    0    0    0.2045997238E+02    0.2071112251E+02   -0.1985076714E+02    0.3525430679E+02    0.1119036317E+01    0    0
  111    1   16   16    0    0    0.2172138214E+01    0.2341250181E+01   -0.2256384850E+01    0.3912687540E+01    0.1349640936E+00    0    0
  111    1   16   16    0    0    0.1356097221E+01    0.1383743405E+01   -0.1299104333E+01    0.2336585760E+01    0.1349637359E+00    0    0
  111    1   16   16    0    0    0.8326721191E+01    0.8062508583E+01   -0.7543464661E+01    0.1382969284E+02    0.1349640042E+00    0    0
  211    1   16   16    0    0    0.8605015755E+01    0.8923620224E+01   -0.8751812935E+01    0.1517534256E+02    0.1395678669E+00    0    0
</event>
<event>
   20 9999    1    0.9119999695E+02    0.7565275169E-02    0.1185000000E+00
   11   -1    0    0    0    0    0.0000000000E+00    0.0000000000E+00    0.8000000000E+02    0.8000000000E+02    0.5109988851E-03    0    0
  -11   -1    0    0    0    0    0.0000000000E+00    0.0000000000E+00   -0.8000000000E+02    0.8000000000E+02    0.5109988851E-03    0    0
  -24    2    1    2    0    0    0.5200939655E+01   -0.5777782440E+02   -0.4416026592E+01    0.6078800964E+02    0.1761685944E+02    0    0
   24    2    1    2    0    0   -0.5200934887E+01    0.5777782440E+02    0.4199125767E+01    0.9899508667E+02    0.8010660553E+02    0    0
   22    1    1    2    0    0   -0.5072332442E-05    0.3451694511E-05    0.2169011533E+00    0.2169011533E+00    0.0000000000E+00    0    0
   15    2    3    3    0    0   -0.3364791155E+01   -0.3840219116E+02    0.2032365799E+01    0.3864373779E+02    0.1777029991E+01    0    0
  -16    1    3    3    0    0    0.8565731049E+01   -0.1937563515E+02   -0.6448392391E+01    0.2214427185E+02    0.0000000000E+00    0    0
   16    1    4    4    0    0    0.1923102379E+01    0.3907854557E+00    0.3390349579E+02    0.3396024323E+02    0.0000000000E+00    0    0
  -15    2    4    4    0    0   -0.7124037266E+01    0.5738703537E+02   -0.2970437050E+02    0.6503485107E+02    0.1777029991E+01    0    0
   16    1    6    6    0    0   -0.1555107713E+01   -0.1245846081E+02    0.7138507962E+00    0.1257542038E+02    0.6283954135E-03    0    0
  -24    2    6    6    0    0   -0.1809815645E+01   -0.2594524002E+02    0.1318594813E+01    0.2606983566E+02    0.1211106658E+01    0    0
  111    1   11   11    0    0   -0.1411559284E+00   -0.3957584858E+01    0.2669895887E+00    0.3971385479E+01    0.1349639446E+00    0    0
  111    1   11   11    0    0   -0.7011215687E+00   -0.6030553818E+01    0.2660084963E+00    0.6078496933E+01    0.1349642128E+00    0    0
  111    1   11   11    0    0   -0.7456252575E+00   -0.1449073696E+02    0.6744937897E+00    0.1452620316E+02    0.1349643469E+00    0    0
 -211    1   11   11    0    0   -0.2219129503E+00   -0.1466363668E+01    0.1111029014E+00    0.1493750572E+01    0.1395679712E+00    0    0
  -16    1    9    9    0    0   -0.4491368234E+00    0.3395852089E+01   -0.1558143020E+01    0.3763156414E+01    0.4648299073E-03    0    0
   24    2    9    9    0    0   -0.6675180435E+01    0.5399344254E+02   -0.2814739609E+02    0.6127425003E+02    0.1551739216E+01    0    0
  321    1   17   17    0    0   -0.3120591402E+01    0.2828270721E+02   -0.1464523315E+02    0.3200587845E+02    0.4936670661E+00    0    0
  111    1   17   17    0    0   -0.7046496272E+00    0.5597880840E+01   -0.3156356573E+01    0.6466343880E+01    0.1349643320E+00    0    0
  130    1   17   17    0    0   -0.2849938154E+01    0.2011284447E+02   -0.1034580135E+02    0.2280201721E+02    0.4977199435E+00    0    0
</event>
<event>
   20 9999    1    0.9119999695E+02    0.7565275169E-02    0.1185000000E+00
   11   -1    0    0    0    0    0.0000000000E+00    0.0000000000E+00    0.8000000000E+02    0.8000000000E+02    0.5109988851E-03    0    0
  -11   -1    0    0    0    0    0.0000000000E+00    0.0000000000E+00   -0.8000000000E+02    0.8000000000E+02    0.5109988851E-03    0    0
  -24    2    1    2    0    0    0.3704385757E+00    0.1833468437E+02    0.8839302063E+01    0.7256529236E+02    0.6965119934E+02    0    0
   24    2    1    2    0    0   -0.3872756362E+00   -0.1832325935E+02   -0.6008470058E+01    0.8460380554E+02    0.8237602997E+02    0    0
   22    1    1    2    0    0    0.1683705859E-01   -0.1142479479E-01   -0.2830831528E+01    0.2830904722E+01    0.0000000000E+00    0    0
   15    2    3    3    0    0   -0.1957728195E+02   -0.1386177826E+02    0.2187170219E+02    0.3251073456E+02    0.1777029991E+01    0    0
  -16    1    3    3    0    0    0.1994771957E+02    0.3219646072E+02   -0.1303240013E+02    0.4005455399E+02    0.0000000000E+00    0    0
   16    1    4    4    0    0   -0.5982266903E+01   -0.3504335785E+02    0.2866309738E+02    0.4566615295E+02    0.0000000000E+00    0    0
  -15    2    4    4    0    0    0.5594991684E+01    0.1672009659E+02   -0.3467156601E+02    0.3893765259E+02    0.1777029991E+01    0    0
   16    1    6    6    0    0   -0.5110290527E+01   -0.3563463926E+01    0.5363332748E+01    0.8220625877E+01    0.2200653835E-03    0    0
  -24    2    6    6    0    0   -0.1446776199E+02   -0.1029885960E+02    0.1650922966E+02    0.2429139137E+02    0.1460950255E+01    0    0
 -321    1   11   11    0    0   -0.3685290098E+01   -0.2320831060E+01    0.4075532436E+01    0.5985089302E+01    0.4936670661E+00    0    0
 -211    1   11   11    0    0   -0.5984393597E+01   -0.4693312168E+01    0.6645781517E+01    0.1010079384E+02    0.1395684630E+00    0    0
  211    1   11   11    0    0   -0.4798078537E+01   -0.3284716845E+01    0.5787916660E+01    0.8205509186E+01    0.1395680606E+00    0    0
  -16    1    9    9    0    0    0.1324142218E+01    0.2488768339E+01   -0.5567540646E+01    0.6240579128E+01    0.2598478168E-03    0    0
   24    2    9    9    0    0    0.4271069527E+01    0.1423198605E+02   -0.2910539055E+02    0.3269860840E+02    0.1133009911E+01    0    0
  111    1   16   16    0    0    0.1366037726E+01    0.3773400068E+01   -0.7907216549E+01    0.8868308067E+01    0.1349640191E+00    0    0
  111    1   16   16    0    0    0.9578103423E+00    0.3751482487E+01   -0.7310029507E+01    0.8273196220E+01    0.1349637955E+00    0    0
  111    1   16   16    0    0    0.1628232956E+01    0.4770586967E+01   -0.9970943451E+01    0.1117352104E+02    0.1349641085E+00    0    0
  211    1   16   16    0    0    0.3189885020E+00    0.1936516881E+01   -0.3917201281E+01    0.4383582592E+01    0.1395680606E+00    0    0
</event>
<event>
   20 9999    1    0.9119999695E+02    0.7565275169E-02    0.1185000000E+00
   11   -1    0    0    0    0    0.0000000000E+00    0.0000000000E+00    0.8000000000E+02    0.8000000000E+02    0.5109988851E-03    0    0
  -11   -1    0    0    0    0    0.0000000000E+00    0.0000000000E+00   -0.8000000000E+02    0.8000000000E+02    0.5109988851E-03    0    0
  -24    2    1    2    0    0   -0.7541090488E+01    0.5783054829E+01   -0.4873219013E+01    0.8078746796E+02    0.8007843018E+02    0    0
   24    2    1    2    0    0    0.7541106224E+01   -0.5783017159E+01    0.4855665684E+01    0.7919497681E+02    0.7847264099E+02    0    0
   22    1    1    2    0    0   -0.1603981946E-04   -0.3776203084E-04    0.1755345613E-01    0.1755350456E-01    0.0000000000E+00    0    0
   15    2    3    3    0    0    0.2410004044E+02   -0.1866325569E+02   -0.5172433376E+01    0.3096838760E+02    0.1777029991E+01    0    0
  -16    1    3    3    0    0   -0.3592225647E+02    0.2583624649E+02    0.1376705527E+01    0.4426979828E+02    0.0000000000E+00    0    0
   22    1    3    3    0    0    0.2944291115E+01   -0.2238786697E+01   -0.1240905821E+00    0.3700866699E+01    0.0000000000E+00    0    0
   22    1    3    3    0    0    0.1336831689E+01    0.8488501310E+00   -0.9534003735E+00    0.1848414898E+01    0.0000000000E+00    0    0
   16    1    4    4    0    0    0.8836894989E+01    0.2729572296E+02    0.2694374847E+02    0.3935877228E+02    0.0000000000E+00    0    0
  -15    2    4    4    0    0   -0.1295788646E+01   -0.3307873917E+02   -0.2208808327E+02    0.3983620834E+02    0.1777029991E+01    0    0
   16    1    6    6    0    0    0.4067094803E+01   -0.2758965731E+01   -0.1128402233E+01    0.5042464256E+01    0.8631674427E-04    0    0
  -24    2    6    6    0    0    0.2003391266E+02   -0.1590503693E+02   -0.4044238091E+01    0.2592716217E+02    0.1238589525E+01    0    0
 -321    1   13   13    0    0    0.1209014225E+02   -0.9243112564E+01   -0.2622443914E+01    0.1545081139E+02    0.4936670065E+00    0    0
  130    1   13   13    0    0    0.7943771362E+01   -0.6661925793E+01   -0.1421794891E+01    0.1047635365E+02    0.4977199733E+00    0    0
  -16    1   11   11    0    0   -0.1538247615E+00   -0.5487459183E+01   -0.3276270628E+01    0.6392950535E+01    0.6224389072E-03    0    0
   24    2   11   11    0    0   -0.1142014861E+01   -0.2759258080E+02   -0.1881268120E+02    0.3344482422E+02    0.1408692837E+01    0    0
  321    1   17   17    0    0   -0.4356773198E+00   -0.1029070187E+02   -0.7459398746E+01    0.1272692871E+02    0.4936668873E+00    0    0
  111    1   17   17    0    0   -0.1460703909E+00   -0.5043286800E+01   -0.3429604053E+01    0.6102169991E+01    0.1349634081E+00    0    0
  310    1   17   17    0    0   -0.5602671504E+00   -0.1225859451E+02   -0.7923680305E+01    0.1461572647E+02    0.4977199733E+00    0    0
</event>
<event>
   17 9999    1    0.9119999695E+02    0.7565275169E-02    0.1185000000E+00
   11   -1    0    0    0    0    0.0000000000E+00    0.0000000000E+00    0.8000000000E+02    0.8000000000E+02    0.5109988851E-03    0    0
  -11   -1    0    0    0    0    0.0000000000E+00    0.0000000000E+00   -0.8000000000E+02    0.8000000000E+02    0.5109988851E-03    0    0
  -24    2    1    2    0    0   -0.1084996223E+02   -0.1121699333E+02    0.5075880527E+01    0.7885227966E+02    0.7712570953E+02    0    0
   24    2    1    2    0    0    0.1084996223E+02    0.1121699333E+02   -0.5075880527E+01    0.8114772034E+02    0.7947103119E+02    0    0
   15    2    3    3    0    0    0.2708740234E+02   -0.2631289864E+02    0.9979398251E+00    0.3781864166E+02    0.1777029991E+01    0    0
  -16    1    3    3    0    0   -0.3793736267E+02    0.1509590435E+02    0.4077940941E+01    0.4103363800E+02    0.0000000000E+00    0    0
   16    1    4    4    0    0    0.4029440689E+02   -0.1102116394E+02   -0.1221307278E+02    0.4352314758E+02    0.0000000000E+00    0    0
  -15    2    4    4    0    0   -0.2944444466E+02    0.2223815727E+02    0.7137192726E+01    0.3762457275E+02    0.1777029991E+01    0    0
   16    1    5    5    0    0    0.1653824615E+02   -0.1608004570E+02    0.6225201488E+00    0.2307528877E+02    0.3540688485E-03    0    0
*****    2    5    5    0    0    0.1055022049E+02   -0.1023388863E+02    0.3754589260E+00    0.1474483967E+02    0.1108924508E+01    0    0
  111    1   10   10    0    0    0.1363829017E+01   -0.1715546012E+01    0.1132401265E-01    0.2195785046E+01    0.1349639744E+00    0    0
  111    1   10   10    0    0    0.1802843213E+01   -0.1431596398E+01   -0.3123673424E-01    0.2306274652E+01    0.1349641830E+00    0    0
 -211    1   10   10    0    0    0.7383547306E+01   -0.7086744785E+01    0.3953716159E+00    0.1024277878E+02    0.1395678818E+00    0    0
  -16    1    8    8    0    0   -0.1370806789E+02    0.1105330372E+02    0.2976220131E+01    0.1785901833E+02    0.1220703125E-03    0    0
  213    2    8    8    0    0   -0.1573753738E+02    0.1118572903E+02    0.4161253452E+01    0.1976703453E+02    0.7931022048E+00    0    0
  211    1   15   15    0    0   -0.1218093872E+01    0.9054025412E+00    0.1672376394E+00    0.1533282161E+01    0.1395680308E+00    0    0
  111    1   15   15    0    0   -0.1451944542E+02    0.1028032780E+02    0.3994016171E+01    0.1823375511E+02    0.1349637359E+00    0    0
</event>
<event>
   16 9999    1    0.9119999695E+02    0.7565275169E-02    0.1185000000E+00
   11   -1    0    0    0    0    0.0000000000E+00    0.0000000000E+00    0.8000000000E+02    0.8000000000E+02    0.5109988851E-03    0    0
  -11   -1    0    0    0    0    0.0000000000E+00    0.0000000000E+00   -0.8000000000E+02    0.8000000000E+02    0.5109988851E-03    0    0
  -24    2    1    2    0    0   -0.2134256935E+02    0.7887782574E+01    0.1544963932E+02    0.8500594330E+02    0.8043379974E+02    0    0
   24    2    1    2    0    0    0.2134256935E+02   -0.7887782574E+01   -0.1544963932E+02    0.7499405670E+02    0.6976886749E+02    0    0
   15    2    3    3    0    0    0.2126387787E+02   -0.1095173931E+02    0.2789309311E+02    0.3678689194E+02    0.1777029991E+01    0    0
  -16    1    3    3    0    0   -0.4260644913E+02    0.1883952141E+02   -0.1244345284E+02    0.4821904755E+02    0.0000000000E+00    0    0
   16    1    4    4    0    0   -0.2440185356E+02   -0.5592772007E+01   -0.1494238281E+02    0.2915483475E+02    0.0000000000E+00    0    0
  -15    2    4    4    0    0    0.4574442291E+02   -0.2295010567E+01   -0.5072563291E+00    0.4583922577E+02    0.1777029991E+01    0    0
   16    1    5    5    0    0    0.9887770653E+01   -0.5439473152E+01    0.1433895874E+02    0.1824723625E+02    0.2441406250E-03    0    0
   13    1    5    5    0    0    0.1016073418E+02   -0.5068078518E+01    0.1220263481E+02    0.1666857529E+02    0.1056588888E+00    0    0
  -14    1    5    5    0    0    0.1216209650E+01   -0.4446188807E+00    0.1352596879E+01    0.1872530460E+01    0.4315837214E-04    0    0
  -16    1    8    8    0    0    0.1252210885E+00   -0.3073420934E-01   -0.4178179428E-01    0.1355397701E+00    0.6304299459E-03    0    0
   24    2    8    8    0    0    0.4562100220E+02   -0.2264366627E+01   -0.4654945135E+00    0.4570548630E+02    0.1540055037E+01    0    0
  310    1   13   13    0    0    0.2632978058E+02   -0.1084810734E+01   -0.4947564900E+00    0.2636146164E+02    0.4977199137E+00    0    0
  211    1   13   13    0    0    0.1007055950E+02   -0.4670348763E+00   -0.1883131266E-01    0.1008236694E+02    0.1395691037E+00    0    0
  130    1   13   13    0    0    0.9220653534E+01   -0.7125207186E+00    0.4809338599E-01    0.9261651039E+01    0.4977200031E+00    0    0
</event>
<event>
   15 9999    1    0.9119999695E+02    0.7565275169E-02    0.1185000000E+00
   11   -1    0    0    0    0    0.0000000000E+00    0.0000000000E+00    0.8000000000E+02    0.8000000000E+02    0.5109988851E-03    0    0
  -11   -1    0    0    0    0    0.0000000000E+00    0.0000000000E+00   -0.8000000000E+02    0.8000000000E+02    0.5109988851E-03    0    0
  -24    2    1    2    0    0    0.1479092598E+02   -0.1230122852E+02   -0.1586598516E+01    0.8036709595E+02    0.7801449585E+02    0    0
   24    2    1    2    0    0   -0.1479091740E+02    0.1230118275E+02    0.1586755872E+01    0.7963273621E+02    0.7725778198E+02    0    0
   22    1    1    2    0    0   -0.8035282917E-05    0.4535664266E-04   -0.1573190530E-03    0.1639239927E-03    0.0000000000E+00    0    0
   15    2    3    3    0    0    0.2351420021E+02    0.2101398277E+02   -0.2365760231E+02    0.3946321106E+02    0.1777029991E+01    0    0
  -16    1    3    3    0    0   -0.8723273277E+01   -0.3331521225E+02    0.2207100296E+02    0.4090388870E+02    0.0000000000E+00    0    0
   16    1    4    4    0    0   -0.2282442474E+02    0.6013905525E+01    0.3635707855E+02    0.4334695435E+02    0.0000000000E+00    0    0
  -15    2    4    4    0    0    0.7643011570E+01    0.6087399006E+01   -0.3300656509E+02    0.3446828842E+02    0.1777029991E+01    0    0
   22    1    4    4    0    0    0.3904953003E+00    0.1998782009E+00   -0.1763757110E+01    0.1817491889E+01    0.0000000000E+00    0    0
   16    1    6    6    0    0    0.1422319889E+02    0.1321374512E+02   -0.1437050629E+02    0.2415396309E+02    0.6103515625E-04    0    0
   11    1    6    6    0    0    0.7584903240E+01    0.6114558697E+01   -0.7864170074E+01    0.1252053356E+02    0.4882812500E-03    0    0
  -12    1    6    6    0    0    0.1707023501E+01    0.1686506629E+01   -0.1423857212E+01    0.2790269375E+01    0.1220703125E-03    0    0
  -16    1    9    9    0    0    0.4305272102E+01    0.2300838232E+01   -0.1633201981E+02    0.1704593849E+02    0.1726334885E-03    0    0
  211    1    9    9    0    0    0.3338028431E+01    0.3786790609E+01   -0.1667579079E+02    0.1742365265E+02    0.1395678520E+00    0    0
</event>
<event>
   20 9999    1    0.9119999695E+02    0.7565275169E-02    0.1185000000E+00
   11   -1    0    0    0    0    0.0000000000E+00    0.0000000000E+00    0.8000000000E+02    0.8000000000E+02    0.5109988851E-03    0    0
  -11   -1    0    0    0    0    0.0000000000E+00    0.0000000000E+00   -0.8000000000E+02    0.8000000000E+02    0.5109988851E-03    0    0
  -24    2    1    2    0    0    0.1166092873E+02   -0.2942850113E+01    0.3330177689E+02    0.7159782410E+02    0.6223023605E+02    0    0
   24    2    1    2    0    0   -0.1162771797E+02    0.2958288670E+01   -0.3323741150E+02    0.8832740784E+02    0.8095090485E+02    0    0
   22    1    1    2    0    0   -0.3321155533E-01   -0.1543863863E-01   -0.6475073099E-01    0.7439097017E-01    0.0000000000E+00    0    0
   22    1    1    2    0    0    0.2485783668E-07    0.9588008609E-08    0.3827045730E-03    0.3827045730E-03    0.0000000000E+00    0    0
   15    2    3    3    0    0   -0.2244222450E+02    0.8022108674E+00   -0.1693691492E+01    0.2259033775E+02    0.1777029991E+01    0    0
  -16    1    3    3    0    0    0.3410315323E+02   -0.3745060921E+01    0.3499546814E+02    0.4900748444E+02    0.0000000000E+00    0    0
   16    1    4    4    0    0   -0.2033063316E+02    0.1178133297E+02    0.2169801712E+02    0.3198340797E+02    0.0000000000E+00    0    0
  -15    2    4    4    0    0    0.8702915192E+01   -0.8823044777E+01   -0.5493542862E+02    0.5634399414E+02    0.1777029991E+01    0    0
   16    1    7    7    0    0   -0.5682637691E+01    0.4787077904E+00   -0.5181407332E+00    0.5726255417E+01    0.5156477564E-03    0    0
  -24    2    7    7    0    0   -0.1676046944E+02    0.3235346377E+00   -0.1175617456E+01    0.1686497307E+02    0.1423792958E+01    0    0
  221    1   12   12    0    0   -0.6923275948E+01    0.5953068137E+00   -0.4453363121E+00    0.6984672070E+01    0.5488000512E+00    0    0
 -211    1   12   12    0    0   -0.3070345879E+01    0.8980917186E-01   -0.1773698032E+00    0.3079939604E+01    0.1395680159E+00    0    0
  111    1   12   12    0    0   -0.6766847610E+01   -0.3615813851E+00   -0.5529112816E+00    0.6800359726E+01    0.1349636018E+00    0    0
  -16    1   10   10    0    0    0.2736173868E+01   -0.3013887405E+01   -0.1760175133E+02    0.1806631660E+02    0.6495299167E-03    0    0
   24    2   10   10    0    0    0.5967083931E+01   -0.5809504032E+01   -0.3733583450E+02    0.3827989578E+02    0.1424504399E+01    0    0
  310    1   17   17    0    0    0.2267701149E+01   -0.1972028971E+01   -0.1336123180E+02    0.1370407295E+02    0.4977200031E+00    0    0
  211    1   17   17    0    0    0.3676075637E+00   -0.1943788528E+00   -0.1764825344E+01    0.1818517566E+01    0.1395680606E+00    0    0
  130    1   17   17    0    0    0.3331774473E+01   -0.3643095255E+01   -0.2220977402E+02    0.2275729942E+02    0.4977199435E+00    0    0
</event>
<event>
   20 9999    1    0.9119999695E+02    0.7565275169E-02    0.1185000000E+00
   11   -1    0    0    0    0    0.0000000000E+00    0.0000000000E+00    0.8000000000E+02    0.8000000000E+02    0.5109988851E-03    0    0
  -11   -1    0    0    0    0    0.0000000000E+00    0.0000000000E+00   -0.8000000000E+02    0.8000000000E+02    0.5109988851E-03    0    0
  -24    2    1    2    0    0    0.1007027817E+02   -0.5043218136E+01    0.5260267258E+02    0.9463152313E+02    0.7785395813E+02    0    0
   24    2    1    2    0    0   -0.1000214195E+02    0.4900118351E+01   -0.5212502670E+02    0.6480610657E+02    0.3686134338E+02    0    0
   22    1    1    2    0    0   -0.6813522428E-01    0.1430995613E+00   -0.5079319477E+00    0.5320852995E+00    0.0000000000E+00    0    0
   22    1    1    2    0    0   -0.9822482525E-06    0.1520300401E-06    0.3028694727E-01    0.3028694727E-01    0.0000000000E+00    0    0
   15    2    3    3    0    0   -0.9009294510E+01   -0.3303855515E+02    0.5003204346E+02    0.6065539551E+02    0.1777029991E+01    0    0
  -16    1    3    3    0    0    0.1907957268E+02    0.2799533844E+02    0.2570628405E+01    0.3397612762E+02    0.0000000000E+00    0    0
   16    1    4    4    0    0    0.4710266367E-01   -0.1513535976E+02   -0.2799088478E+02    0.3182091904E+02    0.0000000000E+00    0    0
  -15    2    4    4    0    0   -0.1004924488E+02    0.2003547859E+02   -0.2413414383E+02    0.3298518372E+02    0.1777029991E+01    0    0
   16    1    7    7    0    0   -0.4916569233E+01   -0.1860458565E+02    0.2783319664E+02    0.3383770370E+02    0.2990099892E-03    0    0
  -24    2    7    7    0    0   -0.4093080521E+01   -0.1443527126E+02    0.2220081902E+02    0.2682008171E+02    0.1144572020E+01    0    0
 -211    1   12   12    0    0   -0.1720804572E+01   -0.5390570641E+01    0.8022132874E+01    0.9818019867E+01    0.1395682991E+00    0    0
  111    1   12   12    0    0   -0.2219926119E+01   -0.8895516396E+01    0.1384230042E+02    0.1660378838E+02    0.1349638402E+00    0    0
   22    1   12   12    0    0   -0.1523492485E+00   -0.1491830349E+00    0.3363837302E+00    0.3982711136E+00    0.9947513172E-04    0    0
  -16    1   10   10    0    0   -0.3887392044E+01    0.7690762043E+01   -0.8804571152E+01    0.1231990719E+02    0.3112194536E-03    0    0
   24    2   10   10    0    0   -0.6162248611E+01    0.1234550476E+02   -0.1533052254E+02    0.2066657639E+02    0.1302944541E+01    0    0
  321    1   17   17    0    0   -0.1413817286E+01    0.2910572529E+01   -0.3849590778E+01    0.5053055286E+01    0.4936671257E+00    0    0
  111    1   17   17    0    0   -0.1177288413E+01    0.2367428303E+01   -0.2888701439E+01    0.3918358803E+01    0.1349637955E+00    0    0
  130    1   17   17    0    0   -0.3571142912E+01    0.7067504406E+01   -0.8592231750E+01    0.1169516373E+02    0.4977200925E+00    0    0
</event>
<event>
   13 9999    1    0.9119999695E+02    0.7565275169E-02    0.1185000000E+00
   11   -1    0    0    0    0    0.0000000000E+00    0.0000000000E+00    0.8000000000E+02    0.8000000000E+02    0.5109988851E-03    0    0
  -11   -1    0    0    0    0    0.0000000000E+00    0.0000000000E+00   -0.8000000000E+02    0.8000000000E+02    0.5109988851E-03    0    0
  -24    2    1    2    0    0    0.4169882298E+01   -0.1370865917E+02    0.1128462791E+02    0.8102267456E+02    0.7894311523E+02    0    0
   24    2    1    2    0    0   -0.4169882298E+01    0.1370865917E+02   -0.1128462791E+02    0.7897732544E+02    0.7684243774E+02    0    0
   15    2    3    3    0    0   -0.1264667988E+02   -0.2671253681E+01   -0.3130862999E+02    0.3391846466E+02    0.1777029991E+01    0    0
  -16    1    3    3    0    0    0.1681656265E+02   -0.1103740501E+02    0.4259325790E+02    0.4710420990E+02    0.0000000000E+00    0    0
   16    1    4    4    0    0   -0.1403514862E+01    0.4565137863E+01    0.3315021515E+02    0.3349249268E+02    0.0000000000E+00    0    0
  -15    2    4    4    0    0   -0.2766367435E+01    0.9143521309E+01   -0.4443484497E+02    0.4548483276E+02    0.1777029991E+01    0    0
   16    1    5    5    0    0   -0.5792949200E+01   -0.5558294058E+00   -0.1556345654E+02    0.1661590767E+02    0.1495049946E-03    0    0
 -211    1    5    5    0    0   -0.6854228973E+01   -0.2115529537E+01   -0.1574640656E+02    0.1730389404E+02    0.1395680457E+00    0    0
  -16    1    8    8    0    0   -0.1123981476E+01    0.1933687210E+01   -0.1083927441E+02    0.1106762600E+02    0.0000000000E+00    0    0
  -11    1    8    8    0    0   -0.1596946716E+01    0.6775394440E+01   -0.3251360703E+02    0.3325042725E+02    0.5132717197E-03    0    0
   12    1    8    8    0    0   -0.4554829001E-01    0.4347995520E+00   -0.1083712459E+01    0.1168570876E+01    0.1930101134E-03    0    0
</event>
<event>
   18 9999    1    0.9119999695E+02    0.7565275169E-02    0.1185000000E+00
   11   -1    0    0    0    0    0.0000000000E+00    0.0000000000E+00    0.8000000000E+02    0.8000000000E+02    0.5109988851E-03    0    0
  -11   -1    0    0    0    0    0.0000000000E+00    0.0000000000E+00   -0.8000000000E+02    0.8000000000E+02    0.5109988851E-03    0    0
  -24    2    1    2    0    0   -0.7842728615E+01   -0.1351903677E+01   -0.2279922009E+01    0.7924291992E+02    0.7880930328E+02    0    0
   24    2    1    2    0    0    0.7842728615E+01    0.1351903677E+01    0.2279922009E+01    0.8075708008E+02    0.8033163452E+02    0    0
   15    2    3    3    0    0   -0.8532685280E+01   -0.3951521301E+02    0.3592984915E+01    0.4062420654E+02    0.1777029991E+01    0    0
  -16    1    3    3    0    0    0.6899562478E+00    0.3816330719E+02   -0.5872907162E+01    0.3861871719E+02    0.0000000000E+00    0    0
   16    1    4    4    0    0   -0.4068501949E+01   -0.3335537338E+02   -0.1869564629E+02    0.3845335770E+02    0.0000000000E+00    0    0
  -15    2    4    4    0    0    0.1191123104E+02    0.3470727539E+02    0.2097556877E+02    0.4230371857E+02    0.1777029991E+01    0    0
   16    1    5    5    0    0   -0.3148998022E+00   -0.1007070541E+01   -0.3605503961E-01    0.1055771112E+01    0.2895151556E-03    0    0
  -24    2    5    5    0    0   -0.8218121529E+01   -0.3850969696E+02    0.3629181623E+01    0.3957003403E+02    0.1443021894E+01    0    0
 -321    1   10   10    0    0   -0.2636188745E+01   -0.1387317944E+02    0.1226537824E+01    0.1418318367E+02    0.4936670661E+00    0    0
  111    1   10   10    0    0   -0.2750173807E+01   -0.1168751717E+02    0.1257418633E+01    0.1207314491E+02    0.1349631697E+00    0    0
  310    1   10   10    0    0   -0.2831758976E+01   -0.1294900227E+02    0.1145225167E+01    0.1331370640E+02    0.4977200031E+00    0    0
  -16    1    8    8    0    0    0.4049487710E+00    0.1414380550E+01    0.9355891347E+00    0.1743497252E+01    0.4315837214E-04    0    0
   24    2    8    8    0    0    0.1150675106E+02    0.3329426193E+02    0.2004080582E+02    0.4056188965E+02    0.1649157166E+01    0    0
  321    1   15   15    0    0    0.3589667559E+01    0.1164927959E+02    0.6996854782E+01    0.1406382275E+02    0.4936670661E+00    0    0
  111    1   15   15    0    0    0.1296373367E+01    0.3713600636E+01    0.2498998404E+01    0.4662040710E+01    0.1349640191E+00    0    0
  130    1   15   15    0    0    0.6620709419E+01    0.1793138123E+02    0.1054495239E+02    0.2183602524E+02    0.4977200329E+00    0    0
</event>
<event>
   22 9999    1    0.9119999695E+02    0.7565275169E-02    0.1185000000E+00
   11   -1    0    0    0    0    0.0000000000E+00    0.0000000000E+00    0.8000000000E+02    0.8000000000E+02    0.5109988851E-03    0    0
  -11   -1    0    0    0    0    0.0000000000E+00    0.0000000000E+00   -0.8000000000E+02    0.8000000000E+02    0.5109988851E-03    0    0
  -24    2    1    2    0    0   -0.3642354202E+02    0.2147671318E+02    0.4632214069E+01    0.6910813141E+02    0.5446607208E+02    0    0
   24    2    1    2    0    0    0.3588973618E+02   -0.2202984238E+02   -0.4268220901E+01    0.9000098419E+02    0.7942652130E+02    0    0
   22    1    1    2    0    0    0.5339120626E+00    0.5524371266E+00   -0.3922468126E+00    0.8626160026E+00    0.0000000000E+00    0    0
   22    1    1    2    0    0   -0.2120655408E-03    0.3742901899E-03    0.2286292054E-01    0.2286696807E-01    0.0000000000E+00    0    0
   22    1    1    2    0    0    0.1062179144E-03    0.3176402533E-03    0.5272101145E-02    0.5282728933E-02    0.0000000000E+00    0    0
   22    1    1    2    0    0    0.4467520043E-07    0.8610143709E-07    0.1184473149E-03    0.1184473585E-03    0.0000000000E+00    0    0
   15    2    3    3    0    0   -0.1275381756E+02    0.3779806137E+02    0.5704599857E+01    0.4033675385E+02    0.1777029991E+01    0    0
  -16    1    3    3    0    0   -0.2366972542E+02   -0.1632134819E+02   -0.1072385788E+01    0.2877138138E+02    0.0000000000E+00    0    0
   16    1    4    4    0    0   -0.2439460373E+02   -0.3609134674E+01   -0.1014795780E+02    0.2666652679E+02    0.0000000000E+00    0    0
  -15    2    4    4    0    0    0.6028433990E+02   -0.1842070770E+02    0.5879736900E+01    0.6333445740E+02    0.1777029991E+01    0    0
   16    1    9    9    0    0   -0.2363173068E+00    0.9833304286E+00   -0.3268329427E-01    0.1011856318E+01    0.6769126048E-03    0    0
  -24    2    9    9    0    0   -0.1251800156E+02    0.3681621552E+02    0.5737507343E+01    0.3932648087E+02    0.1232475162E+01    0    0
 -211    1   14   14    0    0   -0.3417498112E+01    0.1008597279E+02    0.1448742032E+01    0.1074823189E+02    0.1395680457E+00    0    0
 -211    1   14   14    0    0   -0.1106964827E+01    0.3803872108E+01    0.5568715930E+00    0.4003048420E+01    0.1395680308E+00    0    0
  211    1   14   14    0    0   -0.3579965591E+01    0.1016449738E+02    0.1331948876E+01    0.1085940742E+02    0.1395681202E+00    0    0
  111    1   14   14    0    0   -0.4413573265E+01    0.1276187420E+02    0.2399944782E+01    0.1371579361E+02    0.1349641234E+00    0    0
  -16    1   12   12    0    0    0.3412405396E+02   -0.1106770706E+02    0.3000597954E+01    0.3599928665E+02    0.2283726499E-03    0    0
  213    2   12   12    0    0    0.2616266060E+02   -0.7353724480E+01    0.2879369974E+01    0.2733765984E+02    0.7034665942E+00    0    0
  211    1   20   20    0    0    0.1286148834E+02   -0.3884265900E+01    0.1228008747E+01    0.1349195671E+02    0.1395679116E+00    0    0
  111    1   20   20    0    0    0.1330117416E+02   -0.3469459534E+01    0.1651361585E+01    0.1384570694E+02    0.1349638999E+00    0    0
</event>
<event>
   19 9999    1    0.9119999695E+02    0.7565275169E-02    0.1185000000E+00
   11   -1    0    0    0    0    0.0000000000E+00    0.0000000000E+00    0.8000000000E+02    0.8000000000E+02    0.5109988851E-03    0    0
  -11   -1    0    0    0    0    0.0000000000E+00    0.0000000000E+00   -0.8000000000E+02    0.8000000000E+02    0.5109988851E-03    0    0
  -24    2    1    2    0    0   -0.6159838200E+01   -0.1192873669E+02   -0.7663399220E+01    0.7756076813E+02    0.7600465393E+02    0    0
   24    2    1    2    0    0    0.6159838200E+01    0.1192873669E+02    0.7663399220E+01    0.8243923187E+02    0.8097691345E+02    0    0
   15    2    3    3    0    0   -0.1584982634E+01   -0.2659214592E+02    0.2802521706E+02    0.3870691299E+02    0.1777029991E+01    0    0
  -16    1    3    3    0    0   -0.4574855328E+01    0.1466341019E+02   -0.3568861771E+02    0.3885385895E+02    0.0000000000E+00    0    0
   16    1    4    4    0    0   -0.5179742813E+01   -0.2106898499E+02    0.3285127640E+02    0.3936925507E+02    0.0000000000E+00    0    0
  -15    2    4    4    0    0    0.1133958054E+02    0.3299772263E+02   -0.2518787575E+02    0.4306997299E+02    0.1777029991E+01    0    0
   16    1    5    5    0    0   -0.9955289215E-01   -0.5485773563E+01    0.5753081322E+01    0.7949941635E+01    0.6849479978E-03    0    0
  -24    2    5    5    0    0   -0.1485492110E+01   -0.2110741806E+02    0.2227323914E+02    0.3075849342E+02    0.1502650380E+01    0    0
 -321    1   10   10    0    0   -0.7793632150E+00   -0.1361813259E+02    0.1434680843E+02    0.1980241203E+02    0.4936669171E+00    0    0
  111    1   10   10    0    0   -0.8996653557E-01   -0.2202755928E+01    0.2568688631E+01    0.3387713671E+01    0.1349634230E+00    0    0
  310    1   10   10    0    0   -0.6161626577E+00   -0.5286533833E+01    0.5357744694E+01    0.7568371773E+01    0.4977200031E+00    0    0
  -16    1    8    8    0    0    0.3511452675E+01    0.1144763947E+02   -0.9131017685E+01    0.1505836105E+02    0.1726334885E-03    0    0
   24    2    8    8    0    0    0.7828575134E+01    0.2155138206E+02   -0.1605785179E+02    0.2801331139E+02    0.1068787456E+01    0    0
  211    1   15   15    0    0    0.2408654451E+01    0.6093549252E+01   -0.4314402103E+01    0.7846432686E+01    0.1395679265E+00    0    0
  211    1   15   15    0    0    0.2154285431E+01    0.5752096653E+01   -0.4404209137E+01    0.7559371471E+01    0.1395678818E+00    0    0
 -211    1   15   15    0    0    0.2240437508E+01    0.7023830414E+01   -0.5415024757E+01    0.9148536682E+01    0.1395680457E+00    0    0
  111    1   15   15    0    0    0.1025197387E+01    0.2681905985E+01   -0.1924214959E+01    0.3458969116E+01    0.1349639893E+00    0    0
</event>
<event>
   21 9999    1    0.9119999695E+02    0.7565275169E-02    0.1185000000E+00
   11   -1    0    0    0    0    0.0000000000E+00    0.0000000000E+00    0.8000000000E+02    0.8000000000E+02    0.5109988851E-03    0    0
  -11   -1    0    0    0    0    0.0000000000E+00    0.0000000000E+00   -0.8000000000E+02    0.8000000000E+02    0.5109988851E-03    0    0
  -24    2    1    2    0    0    0.1114177227E+02    0.5478339386E+02   -0.1425344372E+02    0.7714987183E+02    0.5122092056E+02    0    0
   24    2    1    2    0    0   -0.1114177227E+02   -0.5478339386E+02    0.1425344372E+02    0.8285012817E+02    0.5946111298E+02    0    0
   15    2    3    3    0    0   -0.4054515839E+01    0.3853636551E+02   -0.3071297455E+02    0.4947661209E+02    0.1777029991E+01    0    0
  -16    1    3    3    0    0    0.1519628811E+02    0.1624702644E+02    0.1645953178E+02    0.2767325783E+02    0.0000000000E+00    0    0
   16    1    4    4    0    0    0.7739834785E+01    0.9436058998E+01   -0.4980222225E+01    0.1318130684E+02    0.0000000000E+00    0    0
  -15    2    4    4    0    0   -0.1888160706E+02   -0.6421945190E+02    0.1923366547E+02    0.6966882324E+02    0.1777029991E+01    0    0
   16    1    5    5    0    0   -0.6035044789E+00    0.4226552010E+01   -0.3498167038E+01    0.5519523144E+01    0.7157006621E-04    0    0
  -24    2    5    5    0    0   -0.3451170683E+01    0.3431132889E+02   -0.2721601677E+02    0.4395903778E+02    0.1583491564E+01    0    0
 -211    1   10   10    0    0   -0.2709870040E+00    0.2837386847E+01   -0.2248168707E+01    0.3632896900E+01    0.1395679861E+00    0    0
 -211    1   10   10    0    0   -0.2673664391E+00    0.4445861340E+01   -0.3572785616E+01    0.5711518764E+01    0.1395680010E+00    0    0
  211    1   10   10    0    0   -0.1145349622E+01    0.6909383297E+01   -0.5491579533E+01    0.8901029587E+01    0.1395678818E+00    0    0
  111    1   10   10    0    0   -0.1036303282E+01    0.1136312771E+02   -0.8911273956E+01    0.1447838402E+02    0.1349639893E+00    0    0
  111    1   10   10    0    0   -0.6122310758E+00    0.7356583595E+01   -0.5826433182E+01    0.9405301094E+01    0.1349639893E+00    0    0
  111    1   10   10    0    0   -0.1189332083E+00    0.1398987055E+01   -0.1165776491E+01    0.1829907179E+01    0.1349640042E+00    0    0
  -16    1    8    8    0    0   -0.5130391598E+01   -0.1739545441E+02    0.5565160275E+01    0.1897086525E+02    0.4228639591E-03    0    0
   24    2    8    8    0    0   -0.1375195789E+02   -0.4682652283E+02    0.1366926289E+02    0.5070069504E+02    0.1368307352E+01    0    0
  321    1   18   18    0    0   -0.6442843437E+01   -0.2145682144E+02    0.6533580780E+01    0.2334173965E+02    0.4936670959E+00    0    0
  211    1   18   18    0    0   -0.1578946114E+01   -0.6404760361E+01    0.1922061086E+01    0.6872250080E+01    0.1395679265E+00    0    0
 -211    1   18   18    0    0   -0.5730169296E+01   -0.1896494293E+02    0.5213621616E+01    0.2048670959E+02    0.1395682245E+00    0    0
</event>
<event>
   20 9999    1    0.9119999695E+02    0.7565275169E-02    0.1185000000E+00
   11   -1    0    0    0    0    0.0000000000E+00    0.0000000000E+00    0.8000000000E+02    0.8000000000E+02    0.5109988851E-03    0    0
  -11   -1    0    0    0    0    0.0000000000E+00    0.0000000000E+00   -0.8000000000E+02    0.8000000000E+02    0.5109988851E-03    0    0
  -24    2    1    2    0    0    0.1642339325E+02    0.2200536537E+02    0.1190220547E+02    0.7488279724E+02    0.6864260101E+02    0    0
   24    2    1    2    0    0   -0.1642339325E+02   -0.2200536537E+02   -0.1190220547E+02    0.8511720276E+02    0.7968257141E+02    0    0
   15    2    3    3    0    0    0.2554375267E+02   -0.1894394875E+02    0.7310147285E+01    0.3267954254E+02    0.1777029991E+01    0    0
  -16    1    3    3    0    0   -0.9120359421E+01    0.4094931412E+02    0.4592057705E+01    0.4220325089E+02    0.0000000000E+00    0    0
   16    1    4    4    0    0   -0.5497386932E+01   -0.5192039490E+02   -0.4738057137E+01    0.5242516708E+02    0.0000000000E+00    0    0
  -15    2    4    4    0    0   -0.1092600536E+02    0.2991503143E+02   -0.7164147854E+01    0.3269203949E+02    0.1777029991E+01    0    0
   16    1    5    5    0    0    0.1449749374E+02   -0.1050903416E+02    0.4721285343E+01    0.1851776505E+02    0.1726334885E-03    0    0
 -213    2    5    5    0    0    0.1104726315E+02   -0.8435660362E+01    0.2589149475E+01    0.1416306305E+02    0.8284163475E+00    0    0
 -211    1   10   10    0    0    0.8770713806E+01   -0.6308450222E+01    0.2081813574E+01    0.1100342655E+02    0.1395681202E+00    0    0
  111    1   10   10    0    0    0.2276551008E+01   -0.2127211094E+01    0.5073365569E+00    0.3159638643E+01    0.1349642873E+00    0    0
  -16    1    8    8    0    0   -0.3648063660E+01    0.9727510452E+01   -0.2308066130E+01    0.1064236736E+02    0.1006386228E-03    0    0
   24    2    8    8    0    0   -0.7278371334E+01    0.2018869591E+02   -0.4856363297E+01    0.2205095673E+02    0.1449937582E+01    0    0
  211    1   14   14    0    0   -0.1518517017E+01    0.4085347176E+01   -0.9587324858E+00    0.4464818001E+01    0.1395679861E+00    0    0
  211    1   14   14    0    0   -0.4795342088E+00    0.1477351785E+01   -0.2309130430E+00    0.1576490164E+01    0.1395679712E+00    0    0
 -211    1   14   14    0    0   -0.1190187693E+01    0.3317262888E+01   -0.1081448555E+01    0.3689144850E+01    0.1395679563E+00    0    0
  111    1   14   14    0    0   -0.8002638221E+00    0.1828758836E+01   -0.3257219493E+00    0.2027089357E+01    0.1349639297E+00    0    0
  111    1   14   14    0    0   -0.2121154547E+01    0.5910587788E+01   -0.1292794824E+01    0.6412790298E+01    0.1349639744E+00    0    0
  111    1   14   14    0    0   -0.1168714046E+01    0.3569387913E+01   -0.9667524099E+00    0.3880624771E+01    0.1349639595E+00    0    0
</event>
<event>
   21 9999    1    0.9119999695E+02    0.7565275169E-02    0.1185000000E+00
   11   -1    0    0    0    0    0.0000000000E+00    0.0000000000E+00    0.8000000000E+02    0.8000000000E+02    0.5109988851E-03    0    0
  -11   -1    0    0    0    0    0.0000000000E+00    0.0000000000E+00   -0.8000000000E+02    0.8000000000E+02    0.5109988851E-03    0    0
  -24    2    1    2    0    0   -0.5526136398E+01    0.1285015869E+02    0.1507008076E+02    0.7808621979E+02    0.7533050537E+02    0    0
   24    2    1    2    0    0    0.5526141644E+01   -0.1285015106E+02   -0.1518660736E+02    0.8179725647E+02    0.7914855194E+02    0    0
   22    1    1    2    0    0   -0.2206939598E-05   -0.3999225555E-05    0.1153273657E+00    0.1153273657E+00    0.0000000000E+00    0    0
   22    1    1    2    0    0   -0.5274212640E-06    0.2334387261E-07    0.1044937526E-02    0.1044937642E-02    0.0000000000E+00    0    0
   22    1    1    2    0    0   -0.2671652055E-05   -0.3964485131E-05    0.1534951152E-03    0.1535695483E-03    0.0000000000E+00    0    0
   15    2    3    3    0    0   -0.6394601345E+01   -0.4970379472E+00    0.4490223694E+02    0.4539280319E+02    0.1777029991E+01    0    0
  -16    1    3    3    0    0    0.8684650660E+00    0.1334719658E+02   -0.2983215332E+02    0.3269341278E+02    0.0000000000E+00    0    0
   16    1    4    4    0    0    0.3054143333E+02   -0.2638105392E+01    0.2059052849E+02    0.3692842484E+02    0.0000000000E+00    0    0
  -15    2    4    4    0    0   -0.2501529312E+02   -0.1021204567E+02   -0.3577713394E+02    0.4486883163E+02    0.1777029991E+01    0    0
   16    1    8    8    0    0   -0.2675343037E+01    0.5325931311E+00    0.2090671921E+02    0.2108392715E+02    0.2441406250E-03    0    0
 -321    1    8    8    0    0   -0.3719510317E+01   -0.1029650688E+01    0.2399728584E+02    0.2431066322E+02    0.4936670661E+00    0    0
  -16    1   11   11    0    0   -0.1484721780E+01   -0.5860110521E+00   -0.2170527935E+01    0.2694252968E+01    0.7629394531E-05    0    0
   24    2   11   11    0    0   -0.2353155518E+02   -0.9626436234E+01   -0.3360801697E+02    0.4217634201E+02    0.1715487361E+01    0    0
  211    1   15   15    0    0   -0.8087653160E+01   -0.3424656153E+01   -0.1177485943E+02    0.1469030952E+02    0.1395679414E+00    0    0
  211    1   15   15    0    0   -0.3702497005E+01   -0.1245658755E+01   -0.5154309750E+01    0.6468889713E+01    0.1395680010E+00    0    0
 -211    1   15   15    0    0   -0.5283006668E+01   -0.2312544584E+01   -0.7932747364E+01    0.9808465004E+01    0.1395680159E+00    0    0
  111    1   15   15    0    0   -0.7277917862E+00   -0.4315258265E+00   -0.1163247347E+01    0.1444733620E+01    0.1349639297E+00    0    0
  111    1   15   15    0    0   -0.2238417149E+01   -0.8641211390E+00   -0.2840600967E+01    0.3720812559E+01    0.1349639297E+00    0    0
  111    1   15   15    0    0   -0.3492189646E+01   -0.1347929835E+01   -0.4742249966E+01    0.6043132782E+01    0.1349639893E+00    0    0
</event>
<event>
   19 9999    1    0.9119999695E+02    0.7565275169E-02    0.1185000000E+00
   11   -1    0    0    0    0    0.0000000000E+00    0.0000000000E+00    0.8000000000E+02    0.8000000000E+02    0.5109988851E-03    0    0
  -11   -1    0    0    0    0    0.0000000000E+00    0.0000000000E+00   -0.8000000000E+02    0.8000000000E+02    0.5109988851E-03    0    0
  -24    2    1    2    0    0    0.3529824495E+01   -0.8122587204E+01    0.1144090843E+02    0.7689456177E+02    0.7552114105E+02    0    0
   24    2    1    2    0    0   -0.3529743910E+01    0.8128945351E+01   -0.1013408852E+02    0.8133648682E+02    0.8021461487E+02    0    0
   22    1    1    2    0    0    0.1568244654E-02    0.1924801327E-03   -0.1537838221E+01    0.1537838936E+01    0.0000000000E+00    0    0
   22    1    1    2    0    0   -0.1648924546E-02   -0.6549895741E-02    0.2310183197E+00    0.2311170250E+00    0.0000000000E+00    0    0
   15    2    3    3    0    0    0.1248504734E+02    0.3120197678E+02   -0.3608272791E+01    0.3384696960E+02    0.1777029991E+01    0    0
  -16    1    3    3    0    0   -0.8955223083E+01   -0.3932456589E+02    0.1504918098E+02    0.4304759216E+02    0.0000000000E+00    0    0
   16    1    4    4    0    0    0.3057215691E+02    0.2622944069E+02    0.3306180954E+01    0.4041746140E+02    0.0000000000E+00    0    0
  -15    2    4    4    0    0   -0.3410190201E+02   -0.1810049629E+02   -0.1344026947E+02    0.4091902161E+02    0.1777029991E+01    0    0
   16    1    7    7    0    0    0.5020618916E+01    0.1217244434E+02   -0.1758695602E+01    0.1328412724E+02    0.0000000000E+00    0    0
  -24    2    7    7    0    0    0.7464919567E+01    0.1903075981E+02   -0.1849719048E+01    0.2056417274E+02    0.1252550483E+01    0    0
 -321    1   12   12    0    0    0.5290132046E+01    0.1266086197E+02   -0.1336357474E+01    0.1379537868E+02    0.4936670065E+00    0    0
  130    1   12   12    0    0    0.2174788713E+01    0.6369900227E+01   -0.5133619905E+00    0.6768795967E+01    0.4977200925E+00    0    0
  -16    1   10   10    0    0   -0.1515931964E+01   -0.9894508123E+00   -0.4079897702E+00    0.1855671883E+01    0.2990099892E-03    0    0
   24    2   10   10    0    0   -0.3258731079E+02   -0.1711175728E+02   -0.1303280830E+02    0.3906496048E+02    0.1213205814E+01    0    0
  111    1   16   16    0    0   -0.1511823654E+02   -0.7987442017E+01   -0.6069978714E+01    0.1814450836E+02    0.1349639744E+00    0    0
  111    1   16   16    0    0   -0.8160956383E+01   -0.4259008408E+01   -0.3523690462E+01    0.9857736588E+01    0.1349639297E+00    0    0
  321    1   16   16    0    0   -0.9308121681E+01   -0.4865308285E+01   -0.3439140320E+01    0.1106271839E+02    0.4936670661E+00    0    0
</event>
<event>
   26 9999    1    0.9119999695E+02    0.7565275169E-02    0.1185000000E+00
   11   -1    0    0    0    0    0.0000000000E+00    0.0000000000E+00    0.8000000000E+02    0.8000000000E+02    0.5109988851E-03    0    0
  -11   -1    0    0    0    0    0.0000000000E+00    0.0000000000E+00   -0.8000000000E+02    0.8000000000E+02    0.5109988851E-03    0    0
  -24    2    1    2    0    0   -0.1652083778E+02   -0.6122598648E+01    0.1350231320E+00    0.7560540771E+02    0.7352370453E+02    0    0
   24    2    1    2    0    0    0.1652296829E+02    0.6120309353E+01   -0.7272652984E+00    0.8295374298E+02    0.8105755615E+02    0    0
   22    1    1    2    0    0   -0.3126490265E-04    0.5733001672E-05    0.1016540408E+01    0.1016540408E+01    0.0000000000E+00    0    0
   22    1    1    2    0    0   -0.2099714708E-02    0.2283782698E-02   -0.4242982864E+00    0.4243096411E+00    0.0000000000E+00    0    0
   15    2    3    3    0    0    0.4911395550E+01    0.2162656021E+02    0.2435814095E+02    0.3298949432E+02    0.1777029991E+01    0    0
  -16    1    3    3    0    0   -0.2143223190E+02   -0.2774915886E+02   -0.2422311783E+02    0.4261590958E+02    0.0000000000E+00    0    0
   16    1    4    4    0    0   -0.1743349457E+02    0.3193912125E+02   -0.1282035351E+02    0.3857973099E+02    0.0000000000E+00    0    0
  -15    2    4    4    0    0    0.3395646286E+02   -0.2581881142E+02    0.1209308815E+02    0.4437401199E+02    0.1777029991E+01    0    0
   16    1    7    7    0    0    0.6414261460E+00    0.4495328426E+01    0.4797109127E+01    0.6605426788E+01    0.5044639693E-03    0    0
  -24    2    7    7    0    0    0.4270162582E+01    0.1713208199E+02    0.1956199074E+02    0.2638536644E+02    0.1331746101E+01    0    0
 -211    1   12   12    0    0    0.1141295910E+01    0.4001472950E+01    0.4554791927E+01    0.6170895576E+01    0.1395680606E+00    0    0
 -211    1   12   12    0    0    0.1680392981E+01    0.6514204502E+01    0.8002397537E+01    0.1045544910E+02    0.1395679116E+00    0    0
  211    1   12   12    0    0    0.6075825095E+00    0.2665539503E+01    0.2820508242E+01    0.3930522203E+01    0.1395680010E+00    0    0
  111    1   12   12    0    0    0.2854788601E+00    0.1675070524E+01    0.1880055308E+01    0.2537751675E+01    0.1349639744E+00    0    0
  111    1   12   12    0    0    0.4823065400E+00    0.1995657921E+01    0.1970362186E+01    0.2848826408E+01    0.1349640936E+00    0    0
   22    1   12   12    0    0    0.7310743630E-01    0.2801427245E+00    0.3338821530E+00    0.4419297874E+00    0.0000000000E+00    0    0
  -16    1   10   10    0    0    0.4331106663E+01   -0.3185245752E+01    0.1581202865E+01    0.5603970051E+01    0.5060767944E-04    0    0
   24    2   10   10    0    0    0.2962669182E+02   -0.2263458252E+02    0.1051236057E+02    0.3877178955E+02    0.1636062860E+01    0    0
  211    1   20   20    0    0    0.7947314739E+01   -0.6194867134E+01    0.3038510799E+01    0.1052559853E+02    0.1395679265E+00    0    0
  211    1   20   20    0    0    0.5912672997E+01   -0.4195023537E+01    0.2102558136E+01    0.7549712181E+01    0.1395679712E+00    0    0
 -211    1   20   20    0    0    0.8807101250E+01   -0.6711335659E+01    0.3059743643E+01    0.1148862743E+02    0.1395679563E+00    0    0
  111    1   20   20    0    0    0.2320530653E+01   -0.1736524224E+01    0.7553693056E+00    0.2998195648E+01    0.1349640042E+00    0    0
  111    1   20   20    0    0    0.4913049936E+00   -0.4442393184E+00    0.2013537884E+00    0.7053281665E+00    0.1349639446E+00    0    0
  111    1   20   20    0    0    0.4147767544E+01   -0.3352592707E+01    0.1354825497E+01    0.5504327297E+01    0.1349639744E+00    0    0
</event>
<event>
   26 9999    1    0.9119999695E+02    0.7565275169E-02    0.1185000000E+00
   11   -1    0    0    0    0    0.0000000000E+00    0.0000000000E+00    0.8000000000E+02    0.8000000000E+02    0.5109988851E-03    0    0
  -11   -1    0    0    0    0    0.0000000000E+00    0.0000000000E+00   -0.8000000000E+02    0.8000000000E+02    0.5109988851E-03    0    0
  -24    2    1    2    0    0   -0.6321974277E+01    0.2063253641E+01    0.9227429390E+01    0.8166401672E+02    0.8086805725E+02    0    0
   24    2    1    2    0    0    0.6312511444E+01   -0.2024822950E+01   -0.8987565041E+01    0.7800331879E+02    0.7719969940E+02    0    0
   22    1    1    2    0    0   -0.8276944980E-02   -0.4850269854E-01   -0.1282313466E+00    0.1373473555E+00    0.0000000000E+00    0    0
   22    1    1    2    0    0    0.6883876049E-03    0.4936267578E-04   -0.8623448014E-01    0.8623723686E-01    0.0000000000E+00    0    0
   22    1    1    2    0    0    0.2218921855E-01    0.3111853637E-01   -0.5712442473E-01    0.6873080879E-01    0.0000000000E+00    0    0
   22    1    1    2    0    0   -0.5386196077E-02   -0.1885942183E-01    0.1859764382E-01    0.2702889591E-01    0.0000000000E+00    0    0
   22    1    1    2    0    0    0.2486234298E-03   -0.2236438217E-02    0.1312870346E-01    0.1332014799E-01    0.0000000000E+00    0    0
   15    2    3    3    0    0   -0.3637316132E+02   -0.1899344254E+02   -0.6784279346E+01    0.4162862015E+02    0.1777029991E+01    0    0
  -16    1    3    3    0    0    0.3005118752E+02    0.2105669594E+02    0.1601170921E+02    0.4003540039E+02    0.0000000000E+00    0    0
   16    1    4    4    0    0    0.2904842615E+01   -0.3225672150E+02    0.1821096230E+02    0.3715606689E+02    0.0000000000E+00    0    0
  -15    2    4    4    0    0    0.3407668829E+01    0.3023189926E+02   -0.2719852638E+02    0.4084724808E+02    0.1777029991E+01    0    0
   16    1   10   10    0    0   -0.4312013149E+01   -0.2320457935E+01   -0.9353645444E+00    0.4985267162E+01    0.4315837214E-04    0    0
  -24    2   10   10    0    0   -0.3206258011E+02   -0.1667373276E+02   -0.5849181652E+01    0.3664499283E+02    0.1618669391E+01    0    0
 -211    1   15   15    0    0   -0.2286383629E+01   -0.1371269703E+01   -0.4681721032E+00    0.2710460186E+01    0.1395679563E+00    0    0
 -211    1   15   15    0    0   -0.1074473381E+02   -0.5474970818E+01   -0.2045684338E+01    0.1223228931E+02    0.1395679265E+00    0    0
 -211    1   15   15    0    0   -0.4671651840E+01   -0.2160730124E+01   -0.8757929802E+00    0.5222985744E+01    0.1395679712E+00    0    0
  211    1   15   15    0    0   -0.3476184368E+01   -0.1602665663E+01   -0.5442324281E+00    0.3868858099E+01    0.1395679563E+00    0    0
  211    1   15   15    0    0   -0.2904209137E+01   -0.1533607483E+01   -0.5146219134E+00    0.3327265739E+01    0.1395680010E+00    0    0
  111    1   15   15    0    0   -0.7979418278E+01   -0.4530488491E+01   -0.1400678039E+01    0.9283132553E+01    0.1349640042E+00    0    0
  -16    1   13   13    0    0    0.1651766002E+00    0.4939297140E+00   -0.5541737676E+00    0.7604991794E+00    0.7672000211E-03    0    0
   24    2   13   13    0    0    0.3242625952E+01    0.2973915672E+02   -0.2664542198E+02    0.4008835220E+02    0.1471553206E+01    0    0
  321    1   23   23    0    0    0.8516612053E+00    0.9853624344E+01   -0.8531245232E+01    0.1307077217E+02    0.4936669767E+00    0    0
  111    1   23   23    0    0    0.8928508312E-01    0.1217028499E+01   -0.1033453941E+01    0.1604796767E+01    0.1349641085E+00    0    0
  310    1   23   23    0    0    0.2301680088E+01    0.1866850662E+02   -0.1708072472E+02    0.2541278839E+02    0.4977200031E+00    0    0
</event>
<event>
   23 9999    1    0.9119999695E+02    0.7565275169E-02    0.1185000000E+00
   11   -1    0    0    0    0    0.0000000000E+00    0.0000000000E+00    0.8000000000E+02    0.8000000000E+02    0.5109988851E-03    0    0
  -11   -1    0    0    0    0    0.0000000000E+00    0.0000000000E+00   -0.8000000000E+02    0.8000000000E+02    0.5109988851E-03    0    0
  -24    2    1    2    0    0   -0.6681910038E+01   -0.2862105370E+02    0.3644718933E+02    0.6700650024E+02    0.4793391800E+02    0    0
   24    2    1    2    0    0    0.6681909084E+01    0.2862104988E+02   -0.3644490051E+02    0.9299121094E+02    0.8034501648E+02    0    0
   22    1    1    2    0    0    0.7404889857E-06    0.2764481223E-05   -0.2289827680E-02    0.2289829543E-02    0.0000000000E+00    0    0
   15    2    3    3    0    0    0.1758638501E+01    0.1257263184E+02    0.1523217106E+02    0.1990830803E+02    0.1777029991E+01    0    0
  -16    1    3    3    0    0   -0.8440548897E+01   -0.4119368362E+02    0.2121501923E+02    0.4709819031E+02    0.0000000000E+00    0    0
   16    1    4    4    0    0    0.4147279739E+02    0.1126401234E+02   -0.5617467880E+01    0.4334082413E+02    0.0000000000E+00    0    0
  -15    2    4    4    0    0   -0.3479088974E+02    0.1735703850E+02   -0.3082743263E+02    0.4965039062E+02    0.1777029991E+01    0    0
   16    1    6    6    0    0    0.9745979905E+00    0.9173848152E+01    0.1112209702E+02    0.1445027256E+02    0.1479394559E-03    0    0
  -24    2    6    6    0    0    0.7841097116E+00    0.3399278164E+01    0.4110672951E+01    0.5458818913E+01    0.8550749421E+00    0    0
 -211    1   11   11    0    0    0.1481323838E+00    0.4217352867E+00    0.6943060756E+00    0.8374628425E+00    0.1395679712E+00    0    0
 -211    1   11   11    0    0    0.1472150683E+00    0.4654865861E+00    0.7046657205E+00    0.8685522676E+00    0.1395680606E+00    0    0
  211    1   11   11    0    0    0.2320918292E+00    0.6557381749E+00    0.8596681356E+00    0.1114615560E+01    0.1395680159E+00    0    0
  111    1   11   11    0    0    0.2566705048E+00    0.1856318474E+01    0.1852033615E+01    0.2638189077E+01    0.1349640638E+00    0    0
  -16    1    9    9    0    0   -0.2164176464E+01    0.1276620507E+01   -0.1844346046E+01    0.3116894484E+01    0.8631674427E-04    0    0
   24    2    9    9    0    0   -0.3262808228E+02    0.1608110237E+02   -0.2898430061E+02    0.4653544998E+02    0.1504939079E+01    0    0
  211    1   17   17    0    0   -0.2238690376E+01    0.1060531259E+01   -0.2124487877E+01    0.3266403198E+01    0.1395680308E+00    0    0
  211    1   17   17    0    0   -0.1204584599E+02    0.6042205334E+01   -0.1070515823E+02    0.1721134949E+02    0.1395680010E+00    0    0
  211    1   17   17    0    0   -0.2526140928E+01    0.1466323137E+01   -0.2360887289E+01    0.3758292198E+01    0.1395680308E+00    0    0
 -211    1   17   17    0    0   -0.3398998260E+01    0.1610120177E+01   -0.2815355062E+01    0.4700146675E+01    0.1395680159E+00    0    0
 -211    1   17   17    0    0   -0.8304709435E+01    0.4081359386E+01   -0.7437200069E+01    0.1187253666E+02    0.1395680010E+00    0    0
  111    1   17   17    0    0   -0.4113698006E+01    0.1820562243E+01   -0.3541212797E+01    0.5726723194E+01    0.1349640042E+00    0    0
</event>
<event>
   17 9999    1    0.9119999695E+02    0.7565275169E-02    0.1185000000E+00
   11   -1    0    0    0    0    0.0000000000E+00    0.0000000000E+00    0.8000000000E+02    0.8000000000E+02    0.5109988851E-03    0    0
  -11   -1    0    0    0    0    0.0000000000E+00    0.0000000000E+00   -0.8000000000E+02    0.8000000000E+02    0.5109988851E-03    0    0
  -24    2    1    2    0    0    0.1667108536E+02   -0.1902172661E+02    0.5063193512E+02    0.5828407288E+02    0.1391722488E+02    0    0
   24    2    1    2    0    0   -0.1667124367E+02    0.1902144623E+02   -0.5048588181E+02    0.1015698624E+03    0.8442669678E+02    0    0
   22    1    1    2    0    0    0.2152208071E-04    0.1166053553E-03   -0.1417293251E+00    0.1417293698E+00    0.0000000000E+00    0    0
   22    1    1    2    0    0    0.1361256436E-03    0.1644848962E-03   -0.4325393122E-02    0.4330659751E-02    0.0000000000E+00    0    0
   15    2    3    3    0    0    0.1744384575E+02   -0.2020536232E+02    0.5005826187E+02    0.5675853729E+02    0.1777029991E+01    0    0
  -16    1    3    3    0    0   -0.7727605700E+00    0.1183636427E+01    0.5736759901E+00    0.1525535464E+01    0.0000000000E+00    0    0
   16    1    4    4    0    0   -0.3795956421E+02   -0.1813224030E+02   -0.1144665909E+02    0.4359739304E+02    0.0000000000E+00    0    0
  -15    2    4    4    0    0    0.2128832054E+02    0.3715368652E+02   -0.3903922272E+02    0.5797247314E+02    0.1777029991E+01    0    0
   16    1    7    7    0    0    0.4223492622E+01   -0.4713094234E+01    0.1260230255E+02    0.1410209846E+02    0.4315837286E-03    0    0
  -24    2    7    7    0    0    0.1322104073E+02   -0.1549306393E+02    0.3745792770E+02    0.4265867233E+02    0.1354694843E+01    0    0
 -321    1   12   12    0    0    0.4284076691E+01   -0.5157087803E+01    0.1235180855E+02    0.1406270790E+02    0.4936670661E+00    0    0
 -211    1   12   12    0    0    0.2576699734E+01   -0.3189769268E+01    0.6853251457E+01    0.7987524033E+01    0.1395680606E+00    0    0
  211    1   12   12    0    0    0.6360263824E+01   -0.7146206379E+01    0.1825286674E+02    0.2060844040E+02    0.1395680308E+00    0    0
  -16    1   10   10    0    0    0.1247373390E+02    0.2259431458E+02   -0.2249261665E+02    0.3423470306E+02    0.2441406250E-03    0    0
  211    1   10   10    0    0    0.8815425873E+01    0.1456083488E+02   -0.1654814339E+02    0.2374005508E+02    0.1395681798E+00    0    0
</event>
<event>
   19 9999    1    0.9119999695E+02    0.7565275169E-02    0.1185000000E+00
   11   -1    0    0    0    0    0.0000000000E+00    0.0000000000E+00    0.8000000000E+02    0.8000000000E+02    0.5109988851E-03    0    0
  -11   -1    0    0    0    0    0.0000000000E+00    0.0000000000E+00   -0.8000000000E+02    0.8000000000E+02    0.5109988851E-03    0    0
  -24    2    1    2    0    0   -0.5559134960E+01    0.2413260460E+01   -0.1081397343E+02    0.8197783661E+02    0.8103515625E+02    0    0
   24    2    1    2    0    0    0.5559180737E+01   -0.2413155317E+01    0.7754424572E+01    0.7496261597E+02    0.7431375885E+02    0    0
   22    1    1    2    0    0   -0.4572520993E-04   -0.1050850478E-03    0.3059548855E+01    0.3059548855E+01    0.0000000000E+00    0    0
   15    2    3    3    0    0    0.3571652985E+02    0.1267069626E+02    0.5925260782E+00    0.3794371796E+02    0.1777029991E+01    0    0
  -16    1    3    3    0    0   -0.4127566147E+02   -0.1025743580E+02   -0.1140649986E+02    0.4403411865E+02    0.0000000000E+00    0    0
   16    1    4    4    0    0    0.1315224171E+02   -0.2097125435E+02   -0.2584951973E+02    0.3579067612E+02    0.0000000000E+00    0    0
  -15    2    4    4    0    0   -0.7593060970E+01    0.1855809784E+02    0.3360394287E+02    0.3917193604E+02    0.1777029991E+01    0    0
   16    1    6    6    0    0    0.8000945091E+01    0.2743083239E+01    0.5347943902E+00    0.8475000381E+01    0.2990099892E-03    0    0
  -24    2    6    6    0    0    0.2771698952E+02    0.9928112984E+01    0.5775501952E-01    0.2947021484E+02    0.1300467134E+01    0    0
  111    1   11   11    0    0    0.8530097008E+01    0.3204940796E+01   -0.1546232961E-01    0.9113322258E+01    0.1349641085E+00    0    0
  111    1   11   11    0    0    0.6060034275E+01    0.2494593382E+01   -0.1100462675E+00    0.6555710316E+01    0.1349636018E+00    0    0
 -321    1   11   11    0    0    0.1312686062E+02    0.4228579044E+01    0.1832635999E+00    0.1380118275E+02    0.4936670065E+00    0    0
  -16    1    9    9    0    0   -0.9322764277E+00    0.2313964844E+01    0.4432760715E+01    0.5086544991E+01    0.3258385696E-03    0    0
   24    2    9    9    0    0   -0.6661083221E+01    0.1624486351E+02    0.2917250633E+02    0.3408693314E+02    0.1618074775E+01    0    0
  111    1   16   16    0    0   -0.1239943147E+01    0.2052901983E+01    0.3577842951E+01    0.4309412956E+01    0.1349642873E+00    0    0
  111    1   16   16    0    0   -0.1939519167E+01    0.4412467480E+01    0.7775082111E+01    0.9148864746E+01    0.1349637806E+00    0    0
  321    1   16   16    0    0   -0.3481622219E+01    0.9779498100E+01    0.1781958771E+02    0.2062866211E+02    0.4936670959E+00    0    0
</event>
<event>
   19 9999    1    0.9119999695E+02    0.7565275169E-02    0.1185000000E+00
   11   -1    0    0    0    0    0.0000000000E+00    0.0000000000E+00    0.8000000000E+02    0.8000000000E+02    0.5109988851E-03    0    0
  -11   -1    0    0    0    0    0.0000000000E+00    0.0000000000E+00   -0.8000000000E+02    0.8000000000E+02    0.5109988851E-03    0    0
  -24    2    1    2    0    0    0.9359251976E+01    0.8062379837E+01    0.5651997089E+01    0.8079846954E+02    0.7964829254E+02    0    0
   24    2    1    2    0    0   -0.9359252930E+01   -0.8062379837E+01   -0.5649762630E+01    0.7919929504E+02    0.7802570343E+02    0    0
   22    1    1    2    0    0    0.9576558568E-06   -0.1560583307E-07   -0.2234198619E-02    0.2234198852E-02    0.0000000000E+00    0    0
   15    2    3    3    0    0    0.4205281067E+02    0.1567736816E+02   -0.5892596722E+01    0.4530010223E+02    0.1777029991E+01    0    0
  -16    1    3    3    0    0   -0.3269355774E+02   -0.7614988327E+01    0.1154459381E+02    0.3549837112E+02    0.0000000000E+00    0    0
   16    1    4    4    0    0   -0.1265380859E+02    0.1631299591E+02    0.2965527725E+02    0.3613403320E+02    0.0000000000E+00    0    0
  -15    2    4    4    0    0    0.3294555664E+01   -0.2437537575E+02   -0.3530504227E+02    0.4306526184E+02    0.1777029991E+01    0    0
   16    1    6    6    0    0    0.3828479290E+01    0.1237591505E+01   -0.7004806399E+00    0.4084061623E+01    0.7720404537E-03    0    0
  -24    2    6    6    0    0    0.3822598267E+02    0.1444039249E+02   -0.5192347527E+01    0.4121781921E+02    0.1482397318E+01    0    0
  221    1   11   11    0    0    0.2171701622E+02    0.8056686401E+01   -0.2532095194E+01    0.2330776024E+02    0.5487999320E+00    0    0
 -211    1   11   11    0    0    0.2626906395E+01    0.9613425732E+00   -0.2439290136E+00    0.2811369419E+01    0.1395680010E+00    0    0
  111    1   11   11    0    0    0.1388205910E+02    0.5422363281E+01   -0.2416323185E+01    0.1509868908E+02    0.1349640638E+00    0    0
  -16    1    9    9    0    0    0.5133254528E+00   -0.5223353863E+01   -0.7037341118E+01    0.8779014587E+01    0.2729575208E-03    0    0
   24    2    9    9    0    0    0.2781359911E+01   -0.1915298271E+02   -0.2826909065E+02    0.3428794479E+02    0.1396037459E+01    0    0
  211    1   16   16    0    0    0.3202266991E+00   -0.1747850299E+01   -0.2115586758E+01    0.2766353607E+01    0.1395680159E+00    0    0
  111    1   16   16    0    0    0.5598490238E+00   -0.3059639931E+01   -0.4210241318E+01    0.5236332417E+01    0.1349640042E+00    0    0
   22    1   16   16    0    0    0.1901284099E+01   -0.1434549141E+02   -0.2194326019E+02    0.2628525543E+02    0.2990099892E-03    0    0
</event>
<event>
   19 9999    1    0.9119999695E+02    0.7565275169E-02    0.1185000000E+00
   11   -1    0    0    0    0    0.0000000000E+00    0.0000000000E+00    0.8000000000E+02    0.8000000000E+02    0.5109988851E-03    0    0
  -11   -1    0    0    0    0    0.0000000000E+00    0.0000000000E+00   -0.8000000000E+02    0.8000000000E+02    0.5109988851E-03    0    0
  -24    2    1    2    0    0    0.4026186466E+01    0.4434960842E+01   -0.1454595089E+01    0.7911157227E+02    0.7887107086E+02    0    0
   24    2    1    2    0    0   -0.4035200596E+01   -0.4400865078E+01    0.1429282784E+01    0.8080440521E+02    0.8057083130E+02    0    0
   22    1    1    2    0    0    0.5028677151E-05    0.1685905204E-05    0.4407399520E-01    0.4407399520E-01    0.0000000000E+00    0    0
   22    1    1    2    0    0    0.9008979425E-02   -0.3409730643E-01   -0.1876172982E-01    0.3994734958E-01    0.0000000000E+00    0    0
   15    2    3    3    0    0   -0.1421488094E+02    0.2000844955E+02   -0.3194112015E+02    0.4032113266E+02    0.1777029991E+01    0    0
  -16    1    3    3    0    0    0.1824106789E+02   -0.1557348919E+02    0.3048652458E+02    0.3879043961E+02    0.0000000000E+00    0    0
   16    1    4    4    0    0   -0.1922358513E+02   -0.2446505308E+01    0.3714912796E+02    0.4189975357E+02    0.0000000000E+00    0    0
  -15    2    4    4    0    0    0.1518838501E+02   -0.1954359889E+01   -0.3571984482E+02    0.3890465164E+02    0.1777029991E+01    0    0
   16    1    7    7    0    0   -0.1418659568E+01    0.2384484529E+01   -0.3713565588E+01    0.4635615826E+01    0.6823938020E-04    0    0
  -24    2    7    7    0    0   -0.1279678154E+02    0.1762475204E+02   -0.2822881126E+02    0.3568710709E+02    0.1521256208E+01    0    0
 -321    1   12   12    0    0   -0.5276983261E+01    0.7507434845E+01   -0.1226792622E+02    0.1532820415E+02    0.4936668873E+00    0    0
 -211    1   12   12    0    0   -0.4261903286E+01    0.5891490459E+01   -0.9528450012E+01    0.1198683929E+02    0.1395680755E+00    0    0
  321    1   12   12    0    0   -0.3257894278E+01    0.4225826740E+01   -0.6432434082E+01    0.8372060776E+01    0.4936670065E+00    0    0
  -16    1   10   10    0    0    0.7605531216E+01   -0.1271034241E+01   -0.1962957001E+02    0.2108979988E+02    0.1726334885E-03    0    0
  213    2   10   10    0    0    0.7583451748E+01   -0.6834025383E+00   -0.1609168243E+02    0.1781638145E+02    0.7109500170E+00    0    0
  211    1   17   17    0    0    0.4316553593E+01   -0.1964867115E+00   -0.8503679276E+01    0.9539564133E+01    0.1395680606E+00    0    0
  111    1   17   17    0    0    0.3266899586E+01   -0.4869160056E+00   -0.7588006020E+01    0.8276821136E+01    0.1349641681E+00    0    0
</event>
<event>
   19 9999    1    0.9119999695E+02    0.7565275169E-02    0.1185000000E+00
   11   -1    0    0    0    0    0.0000000000E+00    0.0000000000E+00    0.8000000000E+02    0.8000000000E+02    0.5109988851E-03    0    0
  -11   -1    0    0    0    0    0.0000000000E+00    0.0000000000E+00   -0.8000000000E+02    0.8000000000E+02    0.5109988851E-03    0    0
  -24    2    1    2    0    0   -0.1399333858E+02    0.3811146021E+01    0.1805405998E+02    0.7634256744E+02    0.7274545288E+02    0    0
   24    2    1    2    0    0    0.1399333858E+02   -0.3811146021E+01   -0.1805405998E+02    0.8365743256E+02    0.8038829803E+02    0    0
   15    2    3    3    0    0   -0.1555877876E+02   -0.3085906792E+02   -0.4582484722E+01    0.3490723038E+02    0.1777029991E+01    0    0
  -16    1    3    3    0    0    0.1565439939E+01    0.3467021561E+02    0.2263654327E+02    0.4143534088E+02    0.0000000000E+00    0    0
   16    1    4    4    0    0   -0.1946629143E+02   -0.2606209564E+02   -0.2720667267E+02    0.4240721893E+02    0.0000000000E+00    0    0
  -15    2    4    4    0    0    0.3345962906E+02    0.2225094986E+02    0.9152612686E+01    0.4125020981E+02    0.1777029991E+01    0    0
   16    1    5    5    0    0   -0.8024559021E+00   -0.1231633186E+01   -0.1316175908E+00    0.1475865483E+01    0.3690608719E-03    0    0
  -24    2    5    5    0    0   -0.1475693512E+02   -0.2962864876E+02   -0.4451047421E+01    0.3343273544E+02    0.1520572066E+01    0    0
  310    1   10   10    0    0   -0.4156421661E+01   -0.8498125076E+01   -0.1420035362E+01    0.9579050064E+01    0.4977200925E+00    0    0
 -211    1   10   10    0    0   -0.3369786263E+01   -0.6150266171E+01   -0.6860454082E+00    0.7047791958E+01    0.1395674944E+00    0    0
  310    1   10   10    0    0   -0.7230729580E+01   -0.1498026276E+02   -0.2344967127E+01    0.1680590057E+02    0.4977200627E+00    0    0
  -16    1    8    8    0    0    0.3173444271E+01    0.2366773605E+01    0.6662675738E+00    0.4014508724E+01    0.1831054688E-03    0    0
   24    2    8    8    0    0    0.3028750420E+02    0.1988505173E+02    0.8486705780E+01    0.3723732758E+02    0.1358692288E+01    0    0
  211    1   15   15    0    0    0.1214869881E+02    0.7642985821E+01    0.3121030569E+01    0.1468899059E+02    0.1395674497E+00    0    0
  130    1   15   15    0    0    0.9263409615E+01    0.6247467995E+01    0.2500317097E+01    0.1146040821E+02    0.4977199435E+00    0    0
  111    1   15   15    0    0    0.8326559067E+01    0.5619616032E+01    0.2704085588E+01    0.1040394115E+02    0.1349640042E+00    0    0
   22    1   15   15    0    0    0.5489269495E+00    0.3750417829E+00    0.1612976789E+00    0.6841009259E+00    0.0000000000E+00    0    0
</event>
<event>
   18 9999    1    0.9119999695E+02    0.7565275169E-02    0.1185000000E+00
   11   -1    0    0    0    0    0.0000000000E+00    0.0000000000E+00    0.8000000000E+02    0.8000000000E+02    0.5109988851E-03    0    0
  -11   -1    0    0    0    0    0.0000000000E+00    0.0000000000E+00   -0.8000000000E+02    0.8000000000E+02    0.5109988851E-03    0    0
  -24    2    1    2    0    0   -0.1948332787E+02   -0.7816681862E+01    0.9665822387E+00    0.7640254974E+02    0.7345552826E+02    0    0
   24    2    1    2    0    0    0.1948332787E+02    0.7816681862E+01   -0.9665822387E+00    0.8359745026E+02    0.8091291046E+02    0    0
   15    2    3    3    0    0   -0.3057064247E+02   -0.3034751701E+02    0.1729202652E+02    0.4645113754E+02    0.1777029991E+01    0    0
  -16    1    3    3    0    0    0.1108731556E+02    0.2253083420E+02   -0.1632544518E+02    0.2995141411E+02    0.0000000000E+00    0    0
   16    1    4    4    0    0   -0.1826223373E+02    0.1896234512E+02   -0.2593452072E+02    0.3695509720E+02    0.0000000000E+00    0    0
  -15    2    4    4    0    0    0.3774556351E+02   -0.1114566422E+02    0.2496793938E+02    0.4664235306E+02    0.1777029991E+01    0    0
   16    1    5    5    0    0   -0.1128031063E+02   -0.1144754982E+02    0.6459177494E+01    0.1732087708E+02    0.1021990101E-03    0    0
  -24    2    5    5    0    0   -0.1929153633E+02   -0.1890116310E+02    0.1083353043E+02    0.2913208771E+02    0.1376909494E+01    0    0
 -211    1   10   10    0    0   -0.3290033817E+01   -0.3376342773E+01    0.2179637432E+01    0.5195605278E+01    0.1395680457E+00    0    0
 -211    1   10   10    0    0   -0.4218173504E+01   -0.4070546150E+01    0.2519134521E+01    0.6381837368E+01    0.1395679861E+00    0    0
 -211    1   10   10    0    0   -0.4469733238E+01   -0.4525790215E+01    0.2267760515E+01    0.6754517555E+01    0.1395680457E+00    0    0
  211    1   10   10    0    0   -0.4325609207E+01   -0.4313520432E+01    0.2285347700E+01    0.6523775578E+01    0.1395679712E+00    0    0
  211    1   10   10    0    0   -0.2987987280E+01   -0.2614963531E+01    0.1581650972E+01    0.4276353836E+01    0.1395680010E+00    0    0
  -16    1    8    8    0    0    0.1832676649E+01   -0.6823624372E+00    0.1129146814E+01    0.2258161783E+01    0.3051757812E-04    0    0
  -13    1    8    8    0    0    0.2696267128E+02   -0.8322817802E+01    0.1856436157E+02    0.3377723694E+02    0.1056584641E+00    0    0
   14    1    8    8    0    0    0.8951700211E+01   -0.2140922785E+01    0.5275414467E+01    0.1060879230E+02    0.1220703125E-03    0    0
</event>
<event>
   20 9999    1    0.9119999695E+02    0.7565275169E-02    0.1185000000E+00
   11   -1    0    0    0    0    0.0000000000E+00    0.0000000000E+00    0.8000000000E+02    0.8000000000E+02    0.5109988851E-03    0    0
  -11   -1    0    0    0    0    0.0000000000E+00    0.0000000000E+00   -0.8000000000E+02    0.8000000000E+02    0.5109988851E-03    0    0
  -24    2    1    2    0    0    0.8299705505E+01    0.4029561043E+01   -0.1821331829E+00    0.7897802734E+02    0.7843706512E+02    0    0
   24    2    1    2    0    0   -0.8299705505E+01   -0.4029561996E+01    0.1775617450E+00    0.8101582336E+02    0.8048857117E+02    0    0
   22    1    1    2    0    0   -0.6870683222E-07    0.1306185482E-05    0.5361024290E-02    0.5361024756E-02    0.0000000000E+00    0    0
   22    1    1    2    0    0   -0.1026843321E-06   -0.5586337082E-07   -0.7895749877E-03    0.7895749877E-03    0.0000000000E+00    0    0
   15    2    3    3    0    0    0.1613790131E+02    0.8668810844E+01    0.3666324997E+02    0.4102355194E+02    0.1777029991E+01    0    0
  -16    1    3    3    0    0   -0.7838196754E+01   -0.4639249802E+01   -0.3684538269E+02    0.3795447540E+02    0.0000000000E+00    0    0
   16    1    4    4    0    0   -0.4063740540E+02   -0.7072197437E+01   -0.1654184151E+02    0.4444150543E+02    0.0000000000E+00    0    0
  -15    2    4    4    0    0    0.3233769989E+02    0.3042635202E+01    0.1671940422E+02    0.3657431793E+02    0.1777029991E+01    0    0
   16    1    7    7    0    0    0.3714711666E+01    0.2310952187E+01    0.8653070450E+01    0.9696144104E+01    0.9218632476E-04    0    0
  -24    2    7    7    0    0    0.1242382526E+02    0.6358200073E+01    0.2801162148E+02    0.3132902336E+02    0.1441723943E+01    0    0
 -211    1   12   12    0    0    0.5169343948E+01    0.3178604364E+01    0.1246469021E+02    0.1386411285E+02    0.1395679712E+00    0    0
  310    1   12   12    0    0    0.5270475864E+01    0.2449883938E+01    0.1168917751E+02    0.1306386089E+02    0.4977200925E+00    0    0
  111    1   12   12    0    0    0.1984006286E+01    0.7297120690E+00    0.3857755184E+01    0.4401051044E+01    0.1349640638E+00    0    0
  -16    1   10   10    0    0    0.1116865063E+02    0.1111307740E+01    0.5463509083E+01    0.1248293591E+02    0.5320921773E-03    0    0
   24    2   10   10    0    0    0.2117032242E+02    0.1931447148E+01    0.1125655270E+02    0.2409282112E+02    0.1356855392E+01    0    0
  111    1   17   17    0    0    0.2864819527E+01    0.1778851002E+00    0.1719276547E+01    0.3348576069E+01    0.1349640638E+00    0    0
  111    1   17   17    0    0    0.5927194595E+01    0.7239205241E+00    0.3530360222E+01    0.6938108921E+01    0.1349635124E+00    0    0
  321    1   17   17    0    0    0.1237830448E+02    0.1029641271E+01    0.6006915092E+01    0.1380613327E+02    0.4936669767E+00    0    0
</event>
<event>
   19 9999    1    0.9119999695E+02    0.7565275169E-02    0.1185000000E+00
   11   -1    0    0    0    0    0.0000000000E+00    0.0000000000E+00    0.8000000000E+02    0.8000000000E+02    0.5109988851E-03    0    0
  -11   -1    0    0    0    0    0.0000000000E+00    0.0000000000E+00   -0.8000000000E+02    0.8000000000E+02    0.5109988851E-03    0    0
  -24    2    1    2    0    0    0.2169379234E+01    0.4089114189E+01   -0.1151613998E+02    0.7998465729E+02    0.7901580811E+02    0    0
   24    2    1    2    0    0   -0.2169356823E+01   -0.4089721203E+01    0.1154660416E+02    0.7998487091E+02    0.7901153564E+02    0    0
   22    1    1    2    0    0   -0.5594128379E-04    0.6483541219E-03   -0.2717659995E-01    0.2718439139E-01    0.0000000000E+00    0    0
   22    1    1    2    0    0    0.3343931166E-04   -0.4138713120E-04   -0.3287290921E-02    0.3287721425E-02    0.0000000000E+00    0    0
   15    2    3    3    0    0    0.2049501419E+01    0.3115264320E+02    0.2100880432E+02    0.3767247391E+02    0.1777029991E+01    0    0
  -16    1    3    3    0    0    0.1198777780E+00   -0.2706352997E+02   -0.3252494431E+02    0.4231218719E+02    0.0000000000E+00    0    0
   16    1    4    4    0    0    0.4047176361E+01    0.2890803528E+02    0.2980860138E+02    0.4172058105E+02    0.0000000000E+00    0    0
  -15    2    4    4    0    0   -0.6216533184E+01   -0.3299775696E+02   -0.1826199722E+02    0.3826428604E+02    0.1777029991E+01    0    0
   16    1    7    7    0    0    0.1903047919E+01    0.2512966347E+02    0.1684962463E+02    0.3031553078E+02    0.2363881504E-03    0    0
 -213    2    7    7    0    0    0.1465341747E+00    0.6024205685E+01    0.4160007000E+01    0.7358426094E+01    0.7268084288E+00    0    0
 -211    1   12   12    0    0    0.1487556994E+00    0.4602892399E+00    0.3750629127E+00    0.6278104186E+00    0.1395682693E+00    0    0
  111    1   12   12    0    0   -0.2221182687E-02    0.5563920975E+01    0.3784946918E+01    0.6730620861E+01    0.1349639744E+00    0    0
  -16    1   10   10    0    0   -0.2740314044E-01   -0.6504375339E+00   -0.2343341708E+00    0.6919048429E+00    0.2660460887E-03    0    0
   24    2   10   10    0    0   -0.6189374924E+01   -0.3234861755E+02   -0.1802838326E+02    0.3757389069E+02    0.1425844193E+01    0    0
  211    1   16   16    0    0   -0.1595468163E+01   -0.6071216583E+01   -0.3426782370E+01    0.7153146267E+01    0.1395683587E+00    0    0
  111    1   16   16    0    0   -0.2151676893E+01   -0.1105589390E+02   -0.5820317268E+01    0.1267899036E+02    0.1349641532E+00    0    0
   22    1   16   16    0    0   -0.2442230225E+01   -0.1522151184E+02   -0.8781285286E+01    0.1774175453E+02    0.1726334885E-03    0    0
</event>
<event>
   18 9999    1    0.9119999695E+02    0.7565275169E-02    0.1185000000E+00
   11   -1    0    0    0    0    0.0000000000E+00    0.0000000000E+00    0.8000000000E+02    0.8000000000E+02    0.5109988851E-03    0    0
  -11   -1    0    0    0    0    0.0000000000E+00    0.0000000000E+00   -0.8000000000E+02    0.8000000000E+02    0.5109988851E-03    0    0
  -24    2    1    2    0    0   -0.4962635040E+02    0.1765832901E+02    0.1508311272E+02    0.6603888702E+02    0.3686520386E+02    0    0
   24    2    1    2    0    0    0.4962635040E+02   -0.1765832901E+02   -0.1508311272E+02    0.9396111298E+02    0.7633216858E+02    0    0
   15    2    3    3    0    0   -0.4984896469E+02    0.1189217663E+02    0.1522138715E+01    0.5130124664E+02    0.1777029991E+01    0    0
  -16    1    3    3    0    0    0.2226140648E+00    0.5766151428E+01    0.1356097412E+02    0.1473764133E+02    0.0000000000E+00    0    0
   16    1    4    4    0    0   -0.7410434246E+01    0.2073932457E+02    0.4433794975E+01    0.2246536636E+02    0.0000000000E+00    0    0
  -15    2    4    4    0    0    0.5703678513E+02   -0.3839765167E+02   -0.1951690674E+02    0.7149575043E+02    0.1777029991E+01    0    0
   16    1    5    5    0    0   -0.2456934929E+01    0.6231255531E+00    0.3246605396E+00    0.2555429459E+01    0.5033087800E-03    0    0
  -24    2    5    5    0    0   -0.4739398956E+02    0.1126951885E+02    0.1197538018E+01    0.4874783325E+02    0.1313362479E+01    0    0
 -321    1   10   10    0    0   -0.1319050217E+02    0.3092765331E+01    0.1469327658E+00    0.1355801773E+02    0.4936670363E+00    0    0
 -211    1   10   10    0    0   -0.6788994312E+01    0.1610972881E+01    0.3202627301E+00    0.6986252785E+01    0.1395678818E+00    0    0
  321    1   10   10    0    0   -0.2741449165E+02    0.6565780640E+01    0.7303425074E+00    0.2820356178E+02    0.4936670363E+00    0    0
  -16    1    8    8    0    0    0.1208129883E+02   -0.7742400169E+01   -0.3872496843E+01    0.1486266327E+02    0.3286843712E-03    0    0
   24    2    8    8    0    0    0.4495772934E+02   -0.3065676498E+02   -0.1564517879E+02    0.5663589859E+02    0.1348585963E+01    0    0
  221    1   15   15    0    0    0.2333788490E+02   -0.1586091900E+02   -0.8268591881E+01    0.2940912056E+02    0.5487999320E+00    0    0
  211    1   15   15    0    0    0.8381375670E+00   -0.5407410860E+00   -0.2872134447E+00    0.1047304273E+01    0.1395680308E+00    0    0
  111    1   15   15    0    0    0.2078171158E+02   -0.1425510597E+02   -0.7089374542E+01    0.2617947769E+02    0.1349640489E+00    0    0
</event>
<event>
   20 9999    1    0.9119999695E+02    0.7565275169E-02    0.1185000000E+00
   11   -1    0    0    0    0    0.0000000000E+00    0.0000000000E+00    0.8000000000E+02    0.8000000000E+02    0.5109988851E-03    0    0
  -11   -1    0    0    0    0    0.0000000000E+00    0.0000000000E+00   -0.8000000000E+02    0.8000000000E+02    0.5109988851E-03    0    0
  -24    2    1    2    0    0    0.2121670961E+01   -0.3546343088E+01    0.6728385448E+01    0.7953894806E+02    0.7914603424E+02    0    0
   24    2    1    2    0    0   -0.2121674061E+01    0.3546339512E+01   -0.6731102467E+01    0.8045833588E+02    0.8006970978E+02    0    0
   22    1    1    2    0    0    0.3086585593E-05    0.3402133189E-05    0.2717090538E-02    0.2717094496E-02    0.0000000000E+00    0    0
   15    2    3    3    0    0   -0.3741618347E+02   -0.1037946415E+02    0.9236135334E-01    0.3886991501E+02    0.1777029991E+01    0    0
  -16    1    3    3    0    0    0.3953785324E+02    0.6833121777E+01    0.6636023998E+01    0.4066903305E+02    0.0000000000E+00    0    0
   16    1    4    4    0    0   -0.9251412749E+00   -0.3746854401E+02   -0.1126946068E+02    0.3913755798E+02    0.0000000000E+00    0    0
  -15    2    4    4    0    0   -0.1196532726E+01    0.4101488113E+02    0.4538358688E+01    0.4132077789E+02    0.1777029991E+01    0    0
   16    1    6    6    0    0   -0.5156525135E+01   -0.1191733360E+01   -0.2290804386E+00    0.5297401428E+01    0.3506202775E-03    0    0
  -24    2    6    6    0    0   -0.3226112747E+02   -0.9188139915E+01    0.3214454353E+00    0.3357404327E+02    0.1382292151E+01    0    0
  111    1   11   11    0    0   -0.1490148735E+02   -0.3993205070E+01    0.1354597062E+00    0.1542843437E+02    0.1349638999E+00    0    0
  111    1   11   11    0    0   -0.6060844421E+01   -0.1522909284E+01   -0.9753049165E-01    0.6251465321E+01    0.1349639744E+00    0    0
 -321    1   11   11    0    0   -0.1129879856E+02   -0.3672025919E+01    0.2835163176E+00    0.1189414597E+02    0.4936671257E+00    0    0
  -16    1    9    9    0    0   -0.6219526008E-01    0.8739532471E+01    0.6935139894E+00    0.8767226219E+01    0.1220703125E-03    0    0
   24    2    9    9    0    0   -0.1134384513E+01    0.3227696609E+02    0.3845023632E+01    0.3255517960E+02    0.1402229786E+01    0    0
  211    1   16   16    0    0    0.1975649148E+00    0.4889251709E+01    0.7516772747E+00    0.4952606678E+01    0.1395684183E+00    0    0
  211    1   16   16    0    0   -0.7261235118E+00    0.1211117649E+02    0.1454892516E+01    0.1222064018E+02    0.1395674795E+00    0    0
 -211    1   16   16    0    0   -0.5827040076E+00    0.1211494446E+02    0.1323397040E+01    0.1220173264E+02    0.1395680010E+00    0    0
  111    1   16   16    0    0   -0.2312229201E-01    0.3161596775E+01    0.3150573969E+00    0.3180205345E+01    0.1349639893E+00    0    0
</event>
<event>
   18 9999    1    0.9119999695E+02    0.7565275169E-02    0.1185000000E+00
   11   -1    0    0    0    0    0.0000000000E+00    0.0000000000E+00    0.8000000000E+02    0.8000000000E+02    0.5109988851E-03    0    0
  -11   -1    0    0    0    0    0.0000000000E+00    0.0000000000E+00   -0.8000000000E+02    0.8000000000E+02    0.5109988851E-03    0    0
  -24    2    1    2    0    0   -0.8919401169E+01    0.7432579041E+01   -0.1119824791E+02    0.7915688324E+02    0.7749588776E+02    0    0
   24    2    1    2    0    0    0.8919401169E+01   -0.7432579041E+01    0.1119824791E+02    0.8084311676E+02    0.7921748352E+02    0    0
   15    2    3    3    0    0   -0.1084905434E+02    0.4075415039E+02   -0.1657621193E+02    0.4534899521E+02    0.1777029991E+01    0    0
  -16    1    3    3    0    0    0.1929653049E+01   -0.3332157135E+02    0.5377963066E+01    0.3380788803E+02    0.0000000000E+00    0    0
   16    1    4    4    0    0    0.3644804382E+02   -0.1387897682E+02    0.2790373039E+02    0.4795523071E+02    0.0000000000E+00    0    0
  -15    2    4    4    0    0   -0.2752864075E+02    0.6446397781E+01   -0.1670548248E+02    0.3288788605E+02    0.1777029991E+01    0    0
   16    1    5    5    0    0   -0.3260269642E+01    0.1139405155E+02   -0.4671811104E+01    0.1273890114E+02    0.2911191550E-03    0    0
  -24    2    5    5    0    0   -0.7589210987E+01    0.2936170387E+02   -0.1190505219E+02    0.3261188126E+02    0.1448682308E+01    0    0
  111    1   10   10    0    0   -0.2618097961E+00    0.1152843356E+01   -0.6110528708E+00    0.1337607265E+01    0.1349640191E+00    0    0
  111    1   10   10    0    0   -0.5409982204E+01    0.2024190140E+02   -0.8264078140E+01    0.2252367020E+02    0.1349636614E+00    0    0
 -321    1   10   10    0    0   -0.1917419672E+01    0.7966959476E+01   -0.3029922009E+01    0.8750604630E+01    0.4936670363E+00    0    0
  -16    1    8    8    0    0   -0.8244639397E+01    0.1787936568E+01   -0.4401083946E+01    0.9515268326E+01    0.4727763007E-03    0    0
   24    2    8    8    0    0   -0.1928508568E+02    0.4658714771E+01   -0.1230505657E+02    0.2337391281E+02    0.1143353343E+01    0    0
  211    1   15   15    0    0   -0.9580927849E+01    0.2258975029E+01   -0.6237200737E+01    0.1165415382E+02    0.1395681202E+00    0    0
  111    1   15   15    0    0   -0.1566619754E+01    0.4530938864E+00   -0.7071940899E+00    0.1782675028E+01    0.1349642724E+00    0    0
   22    1   15   15    0    0   -0.8137535095E+01    0.1946645141E+01   -0.5360660076E+01    0.9937081337E+01    0.1220703125E-03    0    0
</event>
<event>
   13 9999    1    0.9119999695E+02    0.7565275169E-02    0.1185000000E+00
   11   -1    0    0    0    0    0.0000000000E+00    0.0000000000E+00    0.8000000000E+02    0.8000000000E+02    0.5109988851E-03    0    0
  -11   -1    0    0    0    0    0.0000000000E+00    0.0000000000E+00   -0.8000000000E+02    0.8000000000E+02    0.5109988851E-03    0    0
  -24    2    1    2    0    0    0.2661216021E+01   -0.1075623894E+02    0.1084571075E+02    0.7730027771E+02    0.7572928619E+02    0    0
   24    2    1    2    0    0   -0.2661216021E+01    0.1075623894E+02   -0.1084571075E+02    0.8269972229E+02    0.8123322296E+02    0    0
   15    2    3    3    0    0    0.2204611206E+02    0.2617438126E+02    0.2599764168E+00    0.3426885986E+02    0.1777029991E+01    0    0
  -16    1    3    3    0    0   -0.1938489532E+02   -0.3693062210E+02    0.1058573437E+02    0.4303141403E+02    0.0000000000E+00    0    0
   16    1    4    4    0    0    0.1498183441E+02   -0.1466996765E+02    0.2673951530E+02    0.3398036194E+02    0.0000000000E+00    0    0
  -15    2    4    4    0    0   -0.1764304924E+02    0.2542620659E+02   -0.3758522797E+02    0.4871936417E+02    0.1777029991E+01    0    0
   16    1    5    5    0    0    0.1730078888E+02    0.1977154160E+02    0.7505306005E+00    0.2628297043E+02    0.1726334885E-03    0    0
 -211    1    5    5    0    0    0.4746191025E+01    0.6403871536E+01   -0.4905439317E+00    0.7987240791E+01    0.1395680606E+00    0    0
  -16    1    8    8    0    0   -0.1194172287E+02    0.1720541573E+02   -0.2431635094E+02    0.3209230423E+02    0.0000000000E+00    0    0
  -13    1    8    8    0    0   -0.1984605432E+01    0.3313902855E+01   -0.5127541542E+01    0.6420549870E+01    0.1056589931E+00    0    0
   14    1    8    8    0    0   -0.3717416048E+01    0.4907888889E+01   -0.8142813683E+01    0.1020842648E+02    0.1726334885E-03    0    0
</event>
<event>
   19 9999    1    0.9119999695E+02    0.7565275169E-02    0.1185000000E+00
   11   -1    0    0    0    0    0.0000000000E+00    0.0000000000E+00    0.8000000000E+02    0.8000000000E+02    0.5109988851E-03    0    0
  -11   -1    0    0    0    0    0.0000000000E+00    0.0000000000E+00   -0.8000000000E+02    0.8000000000E+02    0.5109988851E-03    0    0
  -24    2    1    2    0    0    0.6803038120E+01   -0.1178600979E+02    0.2888941288E+01    0.7835254669E+02    0.7710762024E+02    0    0
   24    2    1    2    0    0   -0.6802744389E+01    0.1178623867E+02   -0.2964333057E+01    0.8157205200E+02    0.8037425232E+02    0    0
   22    1    1    2    0    0   -0.2945755259E-03   -0.2289572585E-03    0.7539209723E-01    0.7539302111E-01    0.0000000000E+00    0    0
   15    2    3    3    0    0   -0.3309694052E+01   -0.3881639862E+02    0.2098785210E+02    0.4428673172E+02    0.1777029991E+01    0    0
  -16    1    3    3    0    0    0.1011273193E+02    0.2703038979E+02   -0.1809891129E+02    0.3406581879E+02    0.0000000000E+00    0    0
   16    1    4    4    0    0    0.1089302158E+02    0.1537864208E+01    0.3593938065E+02    0.3758539581E+02    0.0000000000E+00    0    0
  -15    2    4    4    0    0   -0.1769576645E+02    0.1024837399E+02   -0.3890371323E+02    0.4398666000E+02    0.1777029991E+01    0    0
   16    1    6    6    0    0   -0.9425068647E-01   -0.1860217094E+01    0.8632160425E+00    0.2052908421E+01    0.6630115095E-03    0    0
  -24    2    6    6    0    0   -0.3215573549E+01   -0.3695771027E+02    0.2012546158E+02    0.4223556519E+02    0.1611423612E+01    0    0
 -321    1   11   11    0    0   -0.1350093246E+01   -0.1138059616E+02    0.6454534054E+01    0.1316227341E+02    0.4936670363E+00    0    0
 -211    1   11   11    0    0   -0.6749560237E+00   -0.1202302265E+02    0.6319141865E+01    0.1359998798E+02    0.1395686269E+00    0    0
  321    1   11   11    0    0   -0.1190523624E+01   -0.1355408192E+02    0.7351781368E+01    0.1547329617E+02    0.4936670065E+00    0    0
  -16    1    9    9    0    0   -0.3248785973E+01    0.1543940187E+01   -0.6781890392E+01    0.7676743984E+01    0.6114948774E-03    0    0
   24    2    9    9    0    0   -0.1444767570E+02    0.8704836845E+01   -0.3212335205E+02    0.3631164169E+02    0.1454689980E+01    0    0
  130    1   16   16    0    0   -0.4812888145E+01    0.2684767246E+01   -0.1040577507E+02    0.1178557301E+02    0.4977200925E+00    0    0
  211    1   16   16    0    0   -0.4297747612E+01    0.2517881155E+01   -0.1002722454E+02    0.1119710159E+02    0.1395679265E+00    0    0
  310    1   16   16    0    0   -0.5337038517E+01    0.3502187490E+01   -0.1169035053E+02    0.1332896519E+02    0.4977199435E+00    0    0
</event>
<event>
   16 9999    1    0.9119999695E+02    0.7565275169E-02    0.1185000000E+00
   11   -1    0    0    0    0    0.0000000000E+00    0.0000000000E+00    0.8000000000E+02    0.8000000000E+02    0.5109988851E-03    0    0
  -11   -1    0    0    0    0    0.0000000000E+00    0.0000000000E+00   -0.8000000000E+02    0.8000000000E+02    0.5109988851E-03    0    0
  -24    2    1    2    0    0    0.1603364706E+01   -0.9551108360E+01    0.1237154007E+02    0.8106555939E+02    0.7952845001E+02    0    0
   24    2    1    2    0    0   -0.1603362441E+01    0.9551108360E+01   -0.1237124729E+02    0.7893415070E+02    0.7735475159E+02    0    0
   22    1    1    2    0    0   -0.2344295808E-05   -0.2470200968E-06   -0.2929115435E-03    0.2929210314E-03    0.0000000000E+00    0    0
   15    2    3    3    0    0    0.3609628677E+02    0.1018356895E+02   -0.4649935722E+01    0.3783420181E+02    0.1777029991E+01    0    0
  -16    1    3    3    0    0   -0.3449292374E+02   -0.1973467636E+02    0.1702147484E+02    0.4323135376E+02    0.0000000000E+00    0    0
   16    1    4    4    0    0    0.1300202847E+02   -0.6626743793E+01    0.2881661034E+02    0.3230113983E+02    0.0000000000E+00    0    0
  -15    2    4    4    0    0   -0.1460539150E+02    0.1617785263E+02   -0.4118785858E+02    0.4663301086E+02    0.1777029991E+01    0    0
   16    1    6    6    0    0    0.1899182320E+01    0.7067285776E+00   -0.1500871927E+00    0.2031965733E+01    0.5023827543E-03    0    0
*****    2    6    6    0    0    0.3419852829E+02    0.9477241516E+01   -0.4500031471E+01    0.3580372620E+02    0.1516289353E+01    0    0
 -211    1   11   11    0    0    0.7011955738E+01    0.1738759160E+01   -0.9274873734E+00    0.7284951687E+01    0.1395679116E+00    0    0
 -211    1   11   11    0    0    0.6446255684E+01    0.1311499119E+01   -0.7529234886E+00    0.6622734547E+01    0.1395678371E+00    0    0
  211    1   11   11    0    0    0.2074031639E+02    0.6426982880E+01   -0.2819620609E+01    0.2189603996E+02    0.1395678967E+00    0    0
  -16    1    9    9    0    0   -0.6748301506E+01    0.6601826191E+01   -0.1659356117E+02    0.1909109688E+02    0.4228639591E-03    0    0
  321    1    9    9    0    0   -0.7857665062E+01    0.9576663971E+01   -0.2459592056E+02    0.2754375458E+02    0.4936669171E+00    0    0
</event>
<event>
   18 9999    1    0.9119999695E+02    0.7565275169E-02    0.1185000000E+00
   11   -1    0    0    0    0    0.0000000000E+00    0.0000000000E+00    0.8000000000E+02    0.8000000000E+02    0.5109988851E-03    0    0
  -11   -1    0    0    0    0    0.0000000000E+00    0.0000000000E+00   -0.8000000000E+02    0.8000000000E+02    0.5109988851E-03    0    0
  -24    2    1    2    0    0   -0.1987479448E+01   -0.8181698918E+00    0.1084622383E+02    0.7818215179E+02    0.7739630890E+02    0    0
   24    2    1    2    0    0    0.1987523556E+01    0.8181871176E+00   -0.1098133755E+02    0.8168273163E+02    0.8091266632E+02    0    0
   22    1    1    2    0    0   -0.1789796443E-05    0.3076948587E-05    0.1306713223E+00    0.1306713223E+00    0.0000000000E+00    0    0
   22    1    1    2    0    0   -0.4236712266E-04   -0.2029136522E-04    0.4442377482E-02    0.4442625679E-02    0.0000000000E+00    0    0
   15    2    3    3    0    0    0.3039440727E+02    0.2025601959E+02    0.1457637024E+02    0.3936692429E+02    0.1777029991E+01    0    0
  -16    1    3    3    0    0   -0.3238188553E+02   -0.2107419014E+02   -0.3730146170E+01    0.3881523132E+02    0.0000000000E+00    0    0
   16    1    4    4    0    0   -0.6798975468E+01    0.4004009628E+02   -0.3541738749E+01    0.4076737976E+02    0.0000000000E+00    0    0
  -15    2    4    4    0    0    0.8786499023E+01   -0.3922190857E+02   -0.7439598560E+01    0.4091535187E+02    0.1777029991E+01    0    0
   16    1    7    7    0    0    0.2203481102E+02    0.1497507381E+02    0.1052861691E+02    0.2864677048E+02    0.1525878906E-03    0    0
   11    1    7    7    0    0    0.6297092438E+01    0.4059493065E+01    0.3457608938E+01    0.8251540184E+01    0.5033087800E-03    0    0
  -12    1    7    7    0    0    0.2063700438E+01    0.1222249985E+01    0.5907182693E+00    0.2470162630E+01    0.1726334885E-03    0    0
  -16    1   10   10    0    0    0.3438704729E+01   -0.1686866379E+02   -0.3655096292E+01    0.1759932518E+02    0.4401307669E-03    0    0
20213    2   10   10    0    0    0.5348140717E+01   -0.2235478973E+02   -0.3784795523E+01    0.2331764030E+02    0.1023930907E+01    0    0
  111    1   15   15    0    0    0.2489447594E+01   -0.9556363106E+01   -0.1361562848E+01    0.9969628334E+01    0.1349641681E+00    0    0
  111    1   15   15    0    0    0.1885993361E+01   -0.8854913712E+01   -0.1462404966E+01    0.9171875954E+01    0.1349637359E+00    0    0
  211    1   15   15    0    0    0.9726999402E+00   -0.3943513870E+01   -0.9608278275E+00    0.4176136494E+01    0.1395679414E+00    0    0
</event>
<event>
   21 9999    1    0.9119999695E+02    0.7565275169E-02    0.1185000000E+00
   11   -1    0    0    0    0    0.0000000000E+00    0.0000000000E+00    0.8000000000E+02    0.8000000000E+02    0.5109988851E-03    0    0
  -11   -1    0    0    0    0    0.0000000000E+00    0.0000000000E+00   -0.8000000000E+02    0.8000000000E+02    0.5109988851E-03    0    0
  -24    2    1    2    0    0   -0.1611628723E+02   -0.1548813915E+02    0.9119118690E+01    0.8505419922E+02    0.8155637360E+02    0    0
   24    2    1    2    0    0    0.1611624527E+02    0.1548817730E+02   -0.9119548798E+01    0.7494536591E+02    0.7095085907E+02    0    0
   22    1    1    2    0    0    0.4186323713E-04   -0.3838382690E-04    0.4304471368E-03    0.4341780732E-03    0.0000000000E+00    0    0
   15    2    3    3    0    0    0.1025394917E+02   -0.3754667664E+02    0.2591240883E+02    0.4679217148E+02    0.1777029991E+01    0    0
  -16    1    3    3    0    0   -0.2637023544E+02    0.2205853844E+02   -0.1679328918E+02    0.3826203156E+02    0.0000000000E+00    0    0
   16    1    4    4    0    0    0.4364771652E+02    0.2962993383E+01   -0.1853300571E+01    0.4378740692E+02    0.0000000000E+00    0    0
  -15    2    4    4    0    0   -0.2753146935E+02    0.1252518463E+02   -0.7266248226E+01    0.3115795708E+02    0.1777029991E+01    0    0
   16    1    6    6    0    0    0.4710159004E+00   -0.2363528728E+01    0.1823613286E+01    0.3022199392E+01    0.4688199260E-03    0    0
  -24    2    6    6    0    0    0.9783336639E+01   -0.3518462753E+02    0.2408981514E+02    0.4377181244E+02    0.1407396436E+01    0    0
 -321    1   11   11    0    0    0.5629268169E+01   -0.2043933105E+02    0.1426148415E+02    0.2555559731E+02    0.4936668575E+00    0    0
  111    1   11   11    0    0    0.5720817447E+00   -0.2404567003E+01    0.1703187823E+01    0.3004710197E+01    0.1349642128E+00    0    0
  310    1   11   11    0    0    0.3581987858E+01   -0.1234073257E+02    0.8125144958E+01    0.1521150970E+02    0.4977199733E+00    0    0
  -16    1    9    9    0    0   -0.9358107448E+00    0.2173204571E+00   -0.2212023735E+00    0.9858502746E+00    0.5838356446E-03    0    0
   24    2    9    9    0    0   -0.2659674263E+02    0.1230835629E+02   -0.7045331955E+01    0.3017333221E+02    0.1382369637E+01    0    0
  211    1   16   16    0    0   -0.2360071659E+01    0.1191125751E+01   -0.4283365011E+00    0.2681729078E+01    0.1395680308E+00    0    0
  211    1   16   16    0    0   -0.2889346600E+01    0.1358955860E+01   -0.6716518402E+00    0.3265835285E+01    0.1395678669E+00    0    0
 -211    1   16   16    0    0   -0.8408763885E+01    0.3767326355E+01   -0.2019276619E+01    0.9433822632E+01    0.1395680308E+00    0    0
  111    1   16   16    0    0   -0.8649934769E+01    0.3960751057E+01   -0.2608552217E+01    0.9865681648E+01    0.1349641234E+00    0    0
  111    1   16   16    0    0   -0.4288625717E+01    0.2030197382E+01   -0.1317514539E+01    0.4926263332E+01    0.1349639446E+00    0    0
</event>
<event>
   20 9999    1    0.9119999695E+02    0.7565275169E-02    0.1185000000E+00
   11   -1    0    0    0    0    0.0000000000E+00    0.0000000000E+00    0.8000000000E+02    0.8000000000E+02    0.5109988851E-03    0    0
  -11   -1    0    0    0    0    0.0000000000E+00    0.0000000000E+00   -0.8000000000E+02    0.8000000000E+02    0.5109988851E-03    0    0
  -24    2    1    2    0    0    0.2871348572E+02   -0.2512441063E+02    0.2227323341E+02    0.7282252502E+02    0.5789060974E+02    0    0
   24    2    1    2    0    0   -0.2871348572E+02    0.2512441063E+02   -0.2227323341E+02    0.8717747498E+02    0.7515394592E+02    0    0
   15    2    3    3    0    0    0.1288888645E+02    0.7013253689E+01    0.3238648605E+02    0.3559988022E+02    0.1777029991E+01    0    0
  -16    1    3    3    0    0    0.1582460022E+02   -0.3213766479E+02   -0.1011325169E+02    0.3722264481E+02    0.0000000000E+00    0    0
   16    1    4    4    0    0   -0.2509365654E+02    0.4516065598E+02   -0.3563282394E+02    0.6276045609E+02    0.0000000000E+00    0    0
  -15    2    4    4    0    0   -0.3619829893E+01   -0.2003624725E+02    0.1335959244E+02    0.2441702080E+02    0.1777029991E+01    0    0
   16    1    5    5    0    0    0.1059319377E+01    0.7938256264E+00    0.3305441141E+01    0.3560654163E+01    0.3585003724E-03    0    0
  -24    2    5    5    0    0    0.1183007526E+02    0.6219704628E+01    0.2908231926E+02    0.3204062653E+02    0.1478199005E+01    0    0
  221    1   10   10    0    0    0.5602745533E+01    0.2937150478E+01    0.1473804379E+02    0.1604770088E+02    0.5488000512E+00    0    0
 -211    1   10   10    0    0    0.5112260818E+01    0.2678951502E+01    0.1222337532E+02    0.1351822376E+02    0.1395679116E+00    0    0
  111    1   10   10    0    0    0.1115068436E+01    0.6036025286E+00    0.2120899916E+01    0.2474701166E+01    0.1349641532E+00    0    0
  -16    1    8    8    0    0   -0.2839350104E+00   -0.1673065424E+01    0.7703344226E+00    0.1863647461E+01    0.0000000000E+00    0    0
   24    2    8    8    0    0   -0.3336037636E+01   -0.1836397171E+02    0.1258978462E+02    0.2255433464E+02    0.1353069067E+01    0    0
  211    1   15   15    0    0   -0.4651644528E+00   -0.1939851522E+01    0.1553357244E+01    0.2532153130E+01    0.1395679712E+00    0    0
  211    1   15   15    0    0   -0.6813219786E+00   -0.4655867100E+01    0.2953777075E+01    0.5557479382E+01    0.1395680010E+00    0    0
  211    1   15   15    0    0   -0.1751848310E+00   -0.1076254725E+01    0.6568117738E+00    0.1280583858E+01    0.1395680010E+00    0    0
 -211    1   15   15    0    0   -0.2019838095E+00   -0.1777889252E+01    0.1308726072E+01    0.2221245289E+01    0.1395680159E+00    0    0
 -211    1   15   15    0    0   -0.1812382340E+01   -0.8914107323E+01    0.6117111683E+01    0.1096287251E+02    0.1395680159E+00    0    0
</event>
<event>
   20 9999    1    0.9119999695E+02    0.7565275169E-02    0.1185000000E+00
   11   -1    0    0    0    0    0.0000000000E+00    0.0000000000E+00    0.8000000000E+02    0.8000000000E+02    0.5109988851E-03    0    0
  -11   -1    0    0    0    0    0.0000000000E+00    0.0000000000E+00   -0.8000000000E+02    0.8000000000E+02    0.5109988851E-03    0    0
  -24    2    1    2    0    0   -0.2939432621E+01   -0.9087277412E+01    0.4256847858E+01    0.7977663422E+02    0.7908837891E+02    0    0
   24    2    1    2    0    0    0.2937984943E+01    0.9087716103E+01   -0.3917911291E+01    0.7987660217E+02    0.7920671082E+02    0    0
   22    1    1    2    0    0    0.9744898416E-03   -0.5654388806E-03   -0.3403155804E+00    0.3403174579E+00    0.0000000000E+00    0    0
   22    1    1    2    0    0   -0.1585309064E-05   -0.5116137913E-06    0.3538599936E-02    0.3538600402E-02    0.0000000000E+00    0    0
   22    1    1    2    0    0    0.5347263650E-03    0.1503644307E-03   -0.2500978531E-02    0.2561920322E-02    0.0000000000E+00    0    0
   22    1    1    2    0    0   -0.6014891915E-04   -0.2346463225E-04    0.3415754181E-03    0.3476237180E-03    0.0000000000E+00    0    0
   15    2    3    3    0    0    0.2932110977E+02   -0.2410084534E+02   -0.1309311295E+02    0.4018912506E+02    0.1777029991E+01    0    0
  -16    1    3    3    0    0   -0.3226054382E+02    0.1501356697E+02    0.1734996033E+02    0.3958750916E+02    0.0000000000E+00    0    0
   16    1    4    4    0    0   -0.2814077950E+02    0.5346790314E+01    0.2440013313E+02    0.3762789154E+02    0.0000000000E+00    0    0
  -15    2    4    4    0    0    0.3107876396E+02    0.3740926027E+01   -0.2831804466E+02    0.4224871063E+02    0.1777029991E+01    0    0
   16    1    9    9    0    0    0.5930023670E+01   -0.5297803402E+01   -0.2946111917E+01    0.8480063438E+01    0.3712623729E-03    0    0
  -24    2    9    9    0    0    0.2339224052E+02   -0.1880398941E+02   -0.1014751625E+02    0.3171064186E+02    0.1343789697E+01    0    0
 -321    1   14   14    0    0    0.1456681824E+02   -0.1174175358E+02   -0.6200966835E+01    0.1971691322E+02    0.4936670065E+00    0    0
 -211    1   14   14    0    0    0.3320824862E+01   -0.3065352201E+01   -0.1533304930E+01    0.4774386406E+01    0.1395680159E+00    0    0
  211    1   14   14    0    0    0.5504598618E+01   -0.3996885538E+01   -0.2413245440E+01    0.7219344139E+01    0.1395680904E+00    0    0
  -16    1   12   12    0    0    0.3042740583E+01    0.8117852807E+00   -0.2955423594E+01    0.4318772316E+01    0.8631674427E-04    0    0
  -13    1   12   12    0    0    0.1864137459E+02    0.2368679047E+01   -0.1682444763E+02    0.2522270203E+02    0.1056590229E+00    0    0
   14    1   12   12    0    0    0.9395873070E+01    0.5606088042E+00   -0.8539287567E+01    0.1270889950E+02    0.1512468589E-03    0    0
</event>
<event>
   22 9999    1    0.9119999695E+02    0.7565275169E-02    0.1185000000E+00
   11   -1    0    0    0    0    0.0000000000E+00    0.0000000000E+00    0.8000000000E+02    0.8000000000E+02    0.5109988851E-03    0    0
  -11   -1    0    0    0    0    0.0000000000E+00    0.0000000000E+00   -0.8000000000E+02    0.8000000000E+02    0.5109988851E-03    0    0
  -24    2    1    2    0    0   -0.1126004314E+02   -0.1462113571E+02   -0.1433806515E+02    0.7509535980E+02    0.7136642456E+02    0    0
   24    2    1    2    0    0    0.1126004219E+02    0.1462113571E+02    0.1433892632E+02    0.8490377808E+02    0.8162402344E+02    0    0
   22    1    1    2    0    0    0.8683196029E-06    0.2809320847E-06   -0.8613902610E-03    0.8613907848E-03    0.0000000000E+00    0    0
   15    2    3    3    0    0   -0.3395125198E+02   -0.2131984138E+02    0.9786284447E+01    0.4130559921E+02    0.1777029991E+01    0    0
  -16    1    3    3    0    0    0.2269120979E+02    0.6698705196E+01   -0.2412434959E+02    0.3378976059E+02    0.0000000000E+00    0    0
   16    1    4    4    0    0   -0.3023440552E+02   -0.1270783043E+02   -0.1188750625E+01    0.3281800461E+02    0.0000000000E+00    0    0
  -15    2    4    4    0    0    0.4149444962E+02    0.2732896614E+02    0.1552767658E+02    0.5208577728E+02    0.1777029991E+01    0    0
   16    1    6    6    0    0   -0.3167320728E+01   -0.2219517231E+01    0.6663196683E+00    0.3924558640E+01    0.2589502255E-03    0    0
  -24    2    6    6    0    0   -0.3078526878E+02   -0.1910116196E+02    0.9120349884E+01    0.3738266373E+02    0.1302178860E+01    0    0
 -211    1   11   11    0    0   -0.1289182758E+02   -0.8361236572E+01    0.3638233900E+01    0.1579131794E+02    0.1395679116E+00    0    0
  111    1   11   11    0    0   -0.9609406471E+01   -0.6163529873E+01    0.3170625925E+01    0.1184908772E+02    0.1349640042E+00    0    0
   22    1   11   11    0    0   -0.8284037590E+01   -0.4576397896E+01    0.2311491251E+01    0.9742262840E+01    0.2761113574E-03    0    0
  -16    1    9    9    0    0    0.2958703518E+01    0.2081228733E+01    0.1134908557E+01    0.3791234255E+01    0.1027138660E-04    0    0
   24    2    9    9    0    0    0.3853737640E+02    0.2524881172E+02    0.1439337921E+02    0.4829659271E+02    0.1661171198E+01    0    0
  211    1   16   16    0    0    0.2946816683E+01    0.2048929214E+01    0.9059752226E+00    0.3704336643E+01    0.1395679265E+00    0    0
  211    1   16   16    0    0    0.6760228634E+01    0.4413531303E+01    0.2538402796E+01    0.8464214325E+01    0.1395679861E+00    0    0
 -211    1   16   16    0    0    0.6347784519E+01    0.3964080811E+01    0.2262904882E+01    0.7819751740E+01    0.1395679861E+00    0    0
  111    1   16   16    0    0    0.1164509010E+02    0.7558519840E+01    0.4278841019E+01    0.1452811146E+02    0.1349639595E+00    0    0
  111    1   16   16    0    0    0.6379265308E+01    0.4337007523E+01    0.2819567204E+01    0.8214184761E+01    0.1349638402E+00    0    0
  111    1   16   16    0    0    0.4458191395E+01    0.2926743269E+01    0.1587687969E+01    0.5565991879E+01    0.1349639893E+00    0    0
</event>
<event>
   17 9999    1    0.9119999695E+02    0.7565275169E-02    0.1185000000E+00
   11   -1    0    0    0    0    0.0000000000E+00    0.0000000000E+00    0.8000000000E+02    0.8000000000E+02    0.5109988851E-03    0    0
  -11   -1    0    0    0    0    0.0000000000E+00    0.0000000000E+00   -0.8000000000E+02    0.8000000000E+02    0.5109988851E-03    0    0
  -24    2    1    2    0    0    0.1153094101E+02   -0.1572319794E+02   -0.1506740189E+02    0.7575269318E+02    0.7163282776E+02    0    0
   24    2    1    2    0    0   -0.1153093910E+02    0.1572319889E+02    0.1507455921E+02    0.8424015045E+02    0.8055419922E+02    0    0
   22    1    1    2    0    0   -0.1429999429E-05   -0.4957596502E-06   -0.7157086860E-02    0.7157086860E-02    0.0000000000E+00    0    0
   15    2    3    3    0    0    0.2976884127E+01   -0.4148538208E+02    0.5092355728E+01    0.4194029999E+02    0.1777029991E+01    0    0
  -16    1    3    3    0    0    0.8554057121E+01    0.2576218414E+02   -0.2015975761E+02    0.3381239319E+02    0.0000000000E+00    0    0
   16    1    4    4    0    0   -0.4466704845E+01   -0.1075043583E+02    0.4331484985E+02    0.4485197449E+02    0.0000000000E+00    0    0
  -15    2    4    4    0    0   -0.7064234734E+01    0.2647363472E+02   -0.2824029160E+02    0.3938817978E+02    0.1777029991E+01    0    0
   16    1    6    6    0    0    0.1770935893E+01   -0.2523830605E+02    0.2797468185E+01    0.2545454979E+02    0.2441406250E-03    0    0
   13    1    6    6    0    0    0.6943082213E+00   -0.4023761749E+01    0.3713086545E+00    0.4101433754E+01    0.1056586951E+00    0    0
  -14    1    6    6    0    0    0.5117573142E+00   -0.1222494698E+02    0.1923779011E+01    0.1238596535E+02    0.1726334885E-03    0    0
  -16    1    9    9    0    0   -0.4307656884E+00    0.1014855146E+01   -0.9919232130E+00    0.1483038068E+01    0.2553283703E-03    0    0
   24    2    9    9    0    0   -0.6633747101E+01    0.2545982170E+02   -0.2724947929E+02    0.3790669250E+02    0.1474442840E+01    0    0
  321    1   14   14    0    0   -0.1866372585E+01    0.6421138763E+01   -0.6748740673E+01    0.9513337135E+01    0.4936670661E+00    0    0
  211    1   14   14    0    0   -0.2144439936E+01    0.8646168709E+01   -0.9632211685E+01    0.1312074089E+02    0.1395678520E+00    0    0
 -321    1   14   14    0    0   -0.2622934580E+01    0.1039251423E+02   -0.1086852741E+02    0.1527261448E+02    0.4936670363E+00    0    0
</event>
<event>
   20 9999    1    0.9119999695E+02    0.7565275169E-02    0.1185000000E+00
   11   -1    0    0    0    0    0.0000000000E+00    0.0000000000E+00    0.8000000000E+02    0.8000000000E+02    0.5109988851E-03    0    0
  -11   -1    0    0    0    0    0.0000000000E+00    0.0000000000E+00   -0.8000000000E+02    0.8000000000E+02    0.5109988851E-03    0    0
  -24    2    1    2    0    0    0.1299914455E+02   -0.2277631569E+02    0.1383124232E+01    0.7756965637E+02    0.7298904419E+02    0    0
   24    2    1    2    0    0   -0.1299914455E+02    0.2277631569E+02   -0.1383124232E+01    0.8243034363E+02    0.7813520813E+02    0    0
   15    2    3    3    0    0   -0.1823670959E+02   -0.2819198418E+02    0.2160605240E+02    0.3996679688E+02    0.1777029991E+01    0    0
  -16    1    3    3    0    0    0.3123585510E+02    0.5415670395E+01   -0.2022292709E+02    0.3760285950E+02    0.0000000000E+00    0    0
   16    1    4    4    0    0   -0.3720222473E+02    0.1946455383E+02    0.2299661255E+02    0.4787189865E+02    0.0000000000E+00    0    0
  -15    2    4    4    0    0    0.2420307922E+02    0.3311760426E+01   -0.2437973785E+02    0.3455844498E+02    0.1777029991E+01    0    0
   16    1    5    5    0    0   -0.2052638769E+01   -0.3232581854E+01    0.2526551008E+01    0.4587632656E+01    0.1525878906E-04    0    0
  -24    2    5    5    0    0   -0.1618478775E+02   -0.2496051216E+02    0.1908035088E+02    0.3538073730E+02    0.1662002325E+01    0    0
 -211    1   10   10    0    0   -0.1763500214E+01   -0.2870408297E+01    0.2121683359E+01    0.3983741522E+01    0.1395679861E+00    0    0
 -211    1   10   10    0    0   -0.5424305439E+01   -0.8413524628E+01    0.6238748074E+01    0.1179626846E+02    0.1395679712E+00    0    0
  211    1   10   10    0    0   -0.2106937408E+01   -0.3034670353E+01    0.2104103088E+01    0.4253838062E+01    0.1395679563E+00    0    0
  111    1   10   10    0    0   -0.5321794748E+00   -0.8019955754E+00    0.5429992676E+00    0.1113317251E+01    0.1349640042E+00    0    0
  111    1   10   10    0    0   -0.3092542410E+01   -0.4963824272E+01    0.4187631607E+01    0.7194292545E+01    0.1349638999E+00    0    0
  111    1   10   10    0    0   -0.3265322924E+01   -0.4876087666E+01    0.3885185003E+01    0.7039278507E+01    0.1349639893E+00    0    0
  -16    1    8    8    0    0    0.1832078743E+02    0.2885533333E+01   -0.1796501541E+02    0.2582090950E+02    0.2589502255E-03    0    0
  213    2    8    8    0    0    0.5883244991E+01    0.4263575673E+00   -0.6415679932E+01    0.8738897324E+01    0.6426692009E+00    0    0
  211    1   18   18    0    0    0.3831646681E+01    0.4092450142E+00   -0.3823162317E+01    0.5430013657E+01    0.1395679265E+00    0    0
  111    1   18   18    0    0    0.2051600218E+01    0.1711274497E-01   -0.2592519760E+01    0.3308886528E+01    0.1349644810E+00    0    0
</event>
<event>
   20 9999    1    0.9119999695E+02    0.7565275169E-02    0.1185000000E+00
   11   -1    0    0    0    0    0.0000000000E+00    0.0000000000E+00    0.8000000000E+02    0.8000000000E+02    0.5109988851E-03    0    0
  -11   -1    0    0    0    0    0.0000000000E+00    0.0000000000E+00   -0.8000000000E+02    0.8000000000E+02    0.5109988851E-03    0    0
  -24    2    1    2    0    0   -0.3355974674E+01    0.2286332512E+02    0.1248064613E+02    0.6598564148E+02    0.6053382111E+02    0    0
   24    2    1    2    0    0    0.3358474493E+01   -0.2286652756E+02   -0.1545067668E+01    0.8307878113E+02    0.7978433228E+02    0    0
   22    1    1    2    0    0   -0.2499628114E-02    0.3202114487E-02   -0.1093557930E+02    0.1093557930E+02    0.0000000000E+00    0    0
   15    2    3    3    0    0   -0.1286566353E+02    0.1489206505E+02    0.3504642105E+02    0.4023317337E+02    0.1777029991E+01    0    0
  -16    1    3    3    0    0    0.9509689331E+01    0.7971261024E+01   -0.2256577492E+02    0.2575246239E+02    0.0000000000E+00    0    0
   16    1    4    4    0    0    0.2369294643E+01   -0.4956204987E+02   -0.1665139198E+02    0.5233812332E+02    0.0000000000E+00    0    0
  -15    2    4    4    0    0    0.9891797304E+00    0.2669552040E+02    0.1510632515E+02    0.3074065971E+02    0.1777029991E+01    0    0
   16    1    6    6    0    0   -0.4475466251E+01    0.6029888630E+01    0.1256335926E+02    0.1463650703E+02    0.6124341598E-04    0    0
 -323    2    6    6    0    0   -0.8390704155E+01    0.8862762451E+01    0.2248444176E+02    0.2559825134E+02    0.8762935400E+00    0    0
 -211    1   11   11    0    0   -0.3630056143E+01    0.4047473907E+01    0.9547726631E+01    0.1098808002E+02    0.1395679265E+00    0    0
  310    1   11   11    0    0   -0.4760647297E+01    0.4815288544E+01    0.1293671417E+02    0.1461017036E+02    0.4977200329E+00    0    0
  -16    1    9    9    0    0    0.1038799509E+00    0.6658231020E+00    0.5179997087E+00    0.8499618769E+00    0.3082124167E-03    0    0
   24    2    9    9    0    0    0.8853387237E+00    0.2603074837E+02    0.1458891964E+02    0.2989190865E+02    0.1518523932E+01    0    0
  211    1   15   15    0    0   -0.1581524163E+00    0.2792891741E+01    0.1445927978E+01    0.3152053833E+01    0.1395681798E+00    0    0
  211    1   15   15    0    0    0.4000836238E-01    0.5749735832E+00    0.3094148934E+00    0.6688886881E+00    0.1395678371E+00    0    0
 -211    1   15   15    0    0    0.3431134224E+00    0.4505137920E+01    0.2575264215E+01    0.5202447414E+01    0.1395679712E+00    0    0
  111    1   15   15    0    0    0.1926528215E+00    0.7421034813E+01    0.4275500774E+01    0.8567788124E+01    0.1349639595E+00    0    0
  111    1   15   15    0    0    0.4677166641E+00    0.1073671246E+02    0.5982812881E+01    0.1230073166E+02    0.1349640191E+00    0    0
</event>
<event>
   18 9999    1    0.9119999695E+02    0.7565275169E-02    0.1185000000E+00
   11   -1    0    0    0    0    0.0000000000E+00    0.0000000000E+00    0.8000000000E+02    0.8000000000E+02    0.5109988851E-03    0    0
  -11   -1    0    0    0    0    0.0000000000E+00    0.0000000000E+00   -0.8000000000E+02    0.8000000000E+02    0.5109988851E-03    0    0
  -24    2    1    2    0    0    0.5965103149E+01   -0.1234006119E+02    0.2684217930E+01    0.8179461670E+02    0.8059339142E+02    0    0
   24    2    1    2    0    0   -0.5866846085E+01    0.1221108723E+02   -0.2836063623E+01    0.7797250366E+02    0.7673419952E+02    0    0
   22    1    1    2    0    0   -0.9825763106E-01    0.1289881915E+00    0.1581922621E+00    0.2265332341E+00    0.0000000000E+00    0    0
   22    1    1    2    0    0    0.8072847777E-06   -0.1346214776E-04   -0.6346487906E-02    0.6346501876E-02    0.0000000000E+00    0    0
   15    2    3    3    0    0   -0.1184577495E+00    0.2057268143E+01    0.4064815140E+02    0.4073912811E+02    0.1777029991E+01    0    0
  -16    1    3    3    0    0    0.6083560944E+01   -0.1439732933E+02   -0.3796393585E+02    0.4105548859E+02    0.0000000000E+00    0    0
   16    1    4    4    0    0   -0.8494678497E+01    0.4395293808E+02   -0.8520707130E+01    0.4556997681E+02    0.0000000000E+00    0    0
  -15    2    4    4    0    0    0.2627831936E+01   -0.3174185181E+02    0.5684643269E+01    0.3240252686E+02    0.1777029991E+01    0    0
   16    1    7    7    0    0    0.5451529622E+00    0.1075134635E+01    0.2800876236E+02    0.2803469086E+02    0.2441406250E-03    0    0
 -321    1    7    7    0    0   -0.6636154056E+00    0.9822145700E+00    0.1264099216E+02    0.1270604324E+02    0.4936670959E+00    0    0
  -16    1   10   10    0    0    0.4694569707E+00   -0.1042733383E+02    0.1528413892E+01    0.1054920483E+02    0.4048614355E-03    0    0
   24    2   10   10    0    0    0.2158478260E+01   -0.2131576729E+02    0.4156453133E+01    0.2185459518E+02    0.1151644945E+01    0    0
  211    1   14   14    0    0    0.2686363757E+00   -0.3335810900E+01    0.7151973248E+00    0.3425023556E+01    0.1395679563E+00    0    0
  211    1   14   14    0    0    0.9992893934E+00   -0.9881170273E+01    0.2118067741E+01    0.1015587521E+02    0.1395679265E+00    0    0
 -211    1   14   14    0    0    0.4238536656E+00   -0.2522986174E+01    0.5873756409E+00    0.2628611803E+01    0.1395680159E+00    0    0
  111    1   14   14    0    0    0.4666990340E+00   -0.5575801373E+01    0.7358124852E+00    0.5645086765E+01    0.1349640936E+00    0    0
</event>
<event>
   17 9999    1    0.9119999695E+02    0.7565275169E-02    0.1185000000E+00
   11   -1    0    0    0    0    0.0000000000E+00    0.0000000000E+00    0.8000000000E+02    0.8000000000E+02    0.5109988851E-03    0    0
  -11   -1    0    0    0    0    0.0000000000E+00    0.0000000000E+00   -0.8000000000E+02    0.8000000000E+02    0.5109988851E-03    0    0
  -24    2    1    2    0    0   -0.3794636250E+01    0.4391410828E+01   -0.8182768822E+01    0.8037899017E+02    0.7975048828E+02    0    0
   24    2    1    2    0    0    0.3794636250E+01   -0.4391410828E+01    0.8185994148E+01    0.7961778259E+02    0.7898289490E+02    0    0
   22    1    1    2    0    0    0.4951575860E-07    0.2891782636E-07   -0.3225424560E-02    0.3225424560E-02    0.0000000000E+00    0    0
   15    2    3    3    0    0    0.2317016602E+01   -0.2690066719E+02    0.2319915771E+02    0.3564229584E+02    0.1777029991E+01    0    0
  -16    1    3    3    0    0   -0.6111652851E+01    0.3129207802E+02   -0.3138192749E+02    0.4473669434E+02    0.0000000000E+00    0    0
   16    1    4    4    0    0    0.3854605103E+02   -0.1706354141E+02    0.4968589306E+01    0.4244584274E+02    0.0000000000E+00    0    0
  -15    2    4    4    0    0   -0.3475141525E+02    0.1267213154E+02    0.3217404842E+01    0.3717194366E+02    0.1777029991E+01    0    0
   16    1    6    6    0    0    0.9375252575E-01   -0.2709702730E+01    0.2563942909E+01    0.3731632471E+01    0.4526488192E-03    0    0
  -24    2    6    6    0    0    0.2223355293E+01   -0.2419202423E+02    0.2063612938E+02    0.3191206741E+02    0.1527370334E+01    0    0
 -321    1   11   11    0    0    0.6131011844E+00   -0.7238891602E+01    0.5686963558E+01    0.9239193916E+01    0.4936668873E+00    0    0
 -211    1   11   11    0    0    0.1280455351E+01   -0.1534087753E+02    0.1351717663E+02    0.2048696327E+02    0.1395679116E+00    0    0
  211    1   11   11    0    0    0.3297988474E+00   -0.1612254739E+01    0.1431989908E+01    0.2185910940E+01    0.1395680308E+00    0    0
  -16    1    9    9    0    0   -0.2573968124E+02    0.9157469749E+01    0.1947165489E+01    0.2738944817E+02    0.1220703125E-03    0    0
  -11    1    9    9    0    0   -0.4986503601E+01    0.1677425504E+01    0.9506449699E+00    0.5346279144E+01    0.4567452997E-03    0    0
   12    1    9    9    0    0   -0.4026599884E+01    0.1837735057E+01    0.3197209239E+00    0.4437679291E+01    0.1330230443E-03    0    0
</event>
<event>
   19 9999    1    0.9119999695E+02    0.7565275169E-02    0.1185000000E+00
   11   -1    0    0    0    0    0.0000000000E+00    0.0000000000E+00    0.8000000000E+02    0.8000000000E+02    0.5109988851E-03    0    0
  -11   -1    0    0    0    0    0.0000000000E+00    0.0000000000E+00   -0.8000000000E+02    0.8000000000E+02    0.5109988851E-03    0    0
  -24    2    1    2    0    0    0.1134392166E+02    0.7659883022E+01    0.4617503738E+02    0.6658841705E+02    0.4598396301E+02    0    0
   24    2    1    2    0    0   -0.1134392166E+02   -0.7659883022E+01   -0.4617503738E+02    0.9341158295E+02    0.8003893280E+02    0    0
   15    2    3    3    0    0    0.1910558128E+02    0.1855466270E+02    0.4603189087E+02    0.5321082306E+02    0.1777029991E+01    0    0
  -16    1    3    3    0    0   -0.7761659622E+01   -0.1089478016E+02    0.1431468427E+00    0.1337759686E+02    0.0000000000E+00    0    0
   16    1    4    4    0    0    0.7979973316E+01   -0.2264375687E+02    0.1444649696E+02    0.2802000999E+02    0.0000000000E+00    0    0
  -15    2    4    4    0    0   -0.1932389450E+02    0.1498387337E+02   -0.6062153625E+02    0.6539157104E+02    0.1777029991E+01    0    0
   16    1    5    5    0    0    0.4695936203E+01    0.4269435406E+01    0.1037124634E+02    0.1215905666E+02    0.4315837286E-03    0    0
  -24    2    5    5    0    0    0.1441039658E+02    0.1428595829E+02    0.3566245651E+02    0.4105385971E+02    0.1364002347E+01    0    0
 -321    1   10   10    0    0    0.3675592422E+01    0.3317287207E+01    0.8898666382E+01    0.1019530964E+02    0.4936670661E+00    0    0
 -211    1   10   10    0    0    0.5533864021E+01    0.5873007298E+01    0.1454928589E+02    0.1663782120E+02    0.1395685226E+00    0    0
  211    1   10   10    0    0    0.5200939178E+01    0.5095663071E+01    0.1221450043E+02    0.1422072601E+02    0.1395680159E+00    0    0
  -16    1    8    8    0    0   -0.2507261515E+01    0.1669465899E+01   -0.6596464157E+01    0.7251676559E+01    0.5179004511E-03    0    0
   24    2    8    8    0    0   -0.1681739235E+02    0.1331499672E+02   -0.5402745438E+02    0.5814246750E+02    0.1211089134E+01    0    0
  111    1   15   15    0    0   -0.9657701492E+01    0.7819196701E+01   -0.3058466148E+02    0.3301288986E+02    0.1349639595E+00    0    0
  111    1   15   15    0    0   -0.3123914480E+01    0.2665760040E+01   -0.1086734009E+02    0.1161819363E+02    0.1349634975E+00    0    0
  111    1   15   15    0    0   -0.1019324422E+01    0.7125660181E+00   -0.3016444445E+01    0.3265566587E+01    0.1349639744E+00    0    0
  211    1   15   15    0    0   -0.3016453981E+01    0.2117474794E+01   -0.9559012413E+01    0.1024582291E+02    0.1395679265E+00    0    0
</event>
<event>
   20 9999    1    0.9119999695E+02    0.7565275169E-02    0.1185000000E+00
   11   -1    0    0    0    0    0.0000000000E+00    0.0000000000E+00    0.8000000000E+02    0.8000000000E+02    0.5109988851E-03    0    0
  -11   -1    0    0    0    0    0.0000000000E+00    0.0000000000E+00   -0.8000000000E+02    0.8000000000E+02    0.5109988851E-03    0    0
  -24    2    1    2    0    0   -0.2232080078E+02    0.1770179176E+02    0.1896693230E+02    0.7603601074E+02    0.6789815521E+02    0    0
   24    2    1    2    0    0    0.2223943329E+02   -0.1778812408E+02   -0.2097503662E+02    0.8195238495E+02    0.7392720032E+02    0    0
   22    1    1    2    0    0    0.8136776090E-01    0.8633178473E-01    0.2008105040E+01    0.2011606216E+01    0.0000000000E+00    0    0
   15    2    3    3    0    0   -0.1067220592E+02   -0.1720607185E+02    0.3121698761E+02    0.3725054550E+02    0.1777029991E+01    0    0
  -16    1    3    3    0    0   -0.1164859390E+02    0.3490786362E+02   -0.1225005531E+02    0.3878546906E+02    0.0000000000E+00    0    0
   16    1    4    4    0    0    0.3198388815E+01   -0.2785004807E+02    0.2080829239E+02    0.3491188812E+02    0.0000000000E+00    0    0
  -15    2    4    4    0    0    0.1904104424E+02    0.1006192398E+02   -0.4178332901E+02    0.4704049301E+02    0.1777029991E+01    0    0
   16    1    6    6    0    0   -0.2878561735E+01   -0.4088469982E+01    0.7435953140E+01    0.8960753441E+01    0.7587556611E-03    0    0
  -24    2    6    6    0    0   -0.7794063568E+01   -0.1311827850E+02    0.2378226089E+02    0.2829125404E+02    0.1400886893E+01    0    0
  221    1   11   11    0    0   -0.3691258192E+01   -0.6140260220E+01    0.1066294479E+02    0.1285798454E+02    0.5487999320E+00    0    0
 -211    1   11   11    0    0   -0.2742417097E+01   -0.5057501793E+01    0.8855850220E+01    0.1056147385E+02    0.1395678669E+00    0    0
  111    1   11   11    0    0   -0.1360388637E+01   -0.1920516729E+01    0.4263466835E+01    0.4871797085E+01    0.1349640042E+00    0    0
  -16    1    9    9    0    0    0.4567926884E+01    0.2939780712E+01   -0.1049273682E+02    0.1181548977E+02    0.2441406250E-03    0    0
   24    2    9    9    0    0    0.1447386646E+02    0.7122539043E+01   -0.3129223824E+02    0.3522685623E+02    0.1226348639E+01    0    0
  211    1   16   16    0    0    0.7349102974E+01    0.3367291689E+01   -0.1551315403E+02    0.1749358177E+02    0.1395685822E+00    0    0
  211    1   16   16    0    0    0.3722796679E+01    0.1949391127E+01   -0.8411697388E+01    0.9404013634E+01    0.1395679116E+00    0    0
 -211    1   16   16    0    0    0.1688030720E+01    0.6515239477E+00   -0.3462459564E+01    0.3909224510E+01    0.1395679414E+00    0    0
  111    1   16   16    0    0    0.1713933706E+01    0.1154331088E+01   -0.3904922009E+01    0.4420031548E+01    0.1349638849E+00    0    0
</event>
<event>
   19 9999    1    0.9119999695E+02    0.7565275169E-02    0.1185000000E+00
   11   -1    0    0    0    0    0.0000000000E+00    0.0000000000E+00    0.8000000000E+02    0.8000000000E+02    0.5109988851E-03    0    0
  -11   -1    0    0    0    0    0.0000000000E+00    0.0000000000E+00   -0.8000000000E+02    0.8000000000E+02    0.5109988851E-03    0    0
  -24    2    1    2    0    0   -0.1149322510E+02   -0.4503449917E+01    0.3329457474E+02    0.8970095825E+02    0.8237328339E+02    0    0
   24    2    1    2    0    0    0.1149322796E+02    0.4503449917E+01   -0.3329098511E+02    0.7029544830E+02    0.6066947556E+02    0    0
   22    1    1    2    0    0   -0.2119666988E-05    0.4179422319E-07   -0.3589387517E-02    0.3589388216E-02    0.0000000000E+00    0    0
   15    2    3    3    0    0    0.5423259735E+01   -0.5676323891E+01    0.5864893723E+02    0.5919871902E+02    0.1777029991E+01    0    0
  -16    1    3    3    0    0   -0.1691648483E+02    0.1172874212E+01   -0.2535436249E+02    0.3050224304E+02    0.0000000000E+00    0    0
   16    1    4    4    0    0   -0.3983475447E+01   -0.2349985123E+02    0.3462141752E+00    0.2383759499E+02    0.0000000000E+00    0    0
  -15    2    4    4    0    0    0.1547670269E+02    0.2800330162E+02   -0.3363719940E+02    0.4645785522E+02    0.1777029991E+01    0    0
   16    1    6    6    0    0    0.2557363510E+01   -0.2087838173E+01    0.2325239944E+02    0.2348559761E+02    0.3112194536E-03    0    0
  -24    2    6    6    0    0    0.2866109848E+01   -0.3588709354E+01    0.3539884567E+02    0.3571545029E+02    0.1192327380E+01    0    0
  111    1   11   11    0    0    0.1142714977E+01   -0.1477592468E+01    0.1170071507E+02    0.1184964275E+02    0.1349640787E+00    0    0
  111    1   11   11    0    0    0.2161612362E+00   -0.1600648016E+00    0.3174168348E+01    0.3188401937E+01    0.1349636763E+00    0    0
 -321    1   11   11    0    0    0.1507233739E+01   -0.1951052189E+01    0.2052396584E+02    0.2067740822E+02    0.4936671257E+00    0    0
  -16    1    9    9    0    0    0.9134823680E+00    0.2023698330E+01   -0.2090391397E+01    0.3049515009E+01    0.8631674427E-04    0    0
   24    2    9    9    0    0    0.1456383038E+02    0.2598070526E+02   -0.3154813194E+02    0.4341016769E+02    0.1433835983E+01    0    0
  221    1   16   16    0    0    0.8562531471E+01    0.1516467381E+02   -0.1868650436E+02    0.2554938316E+02    0.5487999320E+00    0    0
  211    1   16   16    0    0    0.1152949214E+01    0.2657024145E+01   -0.2894877672E+01    0.4097421646E+01    0.1395679861E+00    0    0
  111    1   16   16    0    0    0.4848348618E+01    0.8159006119E+01   -0.9966748238E+01    0.1376336288E+02    0.1349639893E+00    0    0
</event>
<event>
   20 9999    1    0.9119999695E+02    0.7565275169E-02    0.1185000000E+00
   11   -1    0    0    0    0    0.0000000000E+00    0.0000000000E+00    0.8000000000E+02    0.8000000000E+02    0.5109988851E-03    0    0
  -11   -1    0    0    0    0    0.0000000000E+00    0.0000000000E+00   -0.8000000000E+02    0.8000000000E+02    0.5109988851E-03    0    0
  -24    2    1    2    0    0   -0.1717676926E+02   -0.4078645229E+01   -0.1196491623E+02    0.7619509125E+02    0.7314954376E+02    0    0
   24    2    1    2    0    0    0.1717983246E+02    0.4063248634E+01    0.1133854294E+02    0.8317833710E+02    0.8048860931E+02    0    0
   22    1    1    2    0    0   -0.3062400501E-02    0.1539660059E-01    0.6262114644E+00    0.6264081597E+00    0.0000000000E+00    0    0
   22    1    1    2    0    0    0.6497605232E-09    0.2068308545E-10    0.1619642426E-03    0.1619642426E-03    0.0000000000E+00    0    0
   15    2    3    3    0    0   -0.3568631744E+02   -0.2761547089E+02   -0.9531133652E+01    0.4615330887E+02    0.1777029991E+01    0    0
  -16    1    3    3    0    0    0.1850954628E+02    0.2353682518E+02   -0.2433782578E+01    0.3004178429E+02    0.0000000000E+00    0    0
   16    1    4    4    0    0    0.4484772491E+02   -0.3971647739E+01    0.2471851540E+02    0.5136241150E+02    0.0000000000E+00    0    0
  -15    2    4    4    0    0   -0.2766789055E+02    0.8034895897E+01   -0.1337997150E+02    0.3181592751E+02    0.1777029991E+01    0    0
   16    1    7    7    0    0   -0.8288578987E+01   -0.6176828384E+01   -0.1887329698E+01    0.1050789070E+02    0.5459150416E-03    0    0
  -24    2    7    7    0    0   -0.2739914131E+02   -0.2143972778E+02   -0.7644178867E+01    0.3564723206E+02    0.1384474874E+01    0    0
 -211    1   12   12    0    0   -0.5187044621E+01   -0.4221195221E+01   -0.1450581074E+01    0.6844529629E+01    0.1395680755E+00    0    0
 -211    1   12   12    0    0   -0.3436076880E+01   -0.2848565817E+01   -0.9175949097E+00    0.4558773041E+01    0.1395679116E+00    0    0
  211    1   12   12    0    0   -0.7218100548E+01   -0.5279888630E+01   -0.2398603439E+01    0.9260182381E+01    0.1395677477E+00    0    0
  111    1   12   12    0    0   -0.1155792046E+02   -0.9090080261E+01   -0.2877400160E+01    0.1498374939E+02    0.1349640787E+00    0    0
  -16    1   10   10    0    0   -0.2099421120E+02    0.5886645317E+01   -0.1031374931E+02    0.2412017632E+02    0.1779465238E-03    0    0
  213    2   10   10    0    0   -0.6674768448E+01    0.2148567200E+01   -0.3066748857E+01    0.7697002411E+01    0.8185501695E+00    0    0
  211    1   18   18    0    0   -0.1594217181E+01    0.8533859849E+00   -0.7249211073E+00    0.1953147650E+01    0.1395682991E+00    0    0
  111    1   18   18    0    0   -0.5080552578E+01    0.1295181513E+01   -0.2341828108E+01    0.5743855953E+01    0.1349641085E+00    0    0
</event>
<event>
   21 9999    1    0.9119999695E+02    0.7565275169E-02    0.1185000000E+00
   11   -1    0    0    0    0    0.0000000000E+00    0.0000000000E+00    0.8000000000E+02    0.8000000000E+02    0.5109988851E-03    0    0
  -11   -1    0    0    0    0    0.0000000000E+00    0.0000000000E+00   -0.8000000000E+02    0.8000000000E+02    0.5109988851E-03    0    0
  -24    2    1    2    0    0   -0.1170335650E+01   -0.4325913906E+01    0.9388740540E+01    0.7920713043E+02    0.7852093506E+02    0    0
   24    2    1    2    0    0    0.1380483031E+01    0.4225372791E+01   -0.9999665260E+01    0.8013903809E+02    0.7938836670E+02    0    0
   22    1    1    2    0    0   -0.2101473659E+00    0.1005411744E+00    0.6109243631E+00    0.6538341045E+00    0.0000000000E+00    0    0
   15    2    3    3    0    0   -0.2079186058E+02    0.3120673561E+02   -0.1872162707E-01    0.3754091263E+02    0.1777029991E+01    0    0
  -16    1    3    3    0    0    0.1962152481E+02   -0.3553264999E+02    0.9407462120E+01    0.4166621780E+02    0.0000000000E+00    0    0
   16    1    4    4    0    0   -0.1777441025E+02   -0.2244639015E+02    0.2055808067E+02    0.3524776077E+02    0.0000000000E+00    0    0
  -15    2    4    4    0    0    0.1915489388E+02    0.2667176247E+02   -0.3055774498E+02    0.4489127350E+02    0.1777029991E+01    0    0
   16    1    6    6    0    0   -0.3630439043E+01    0.5546601772E+01    0.1322636455E+00    0.6630413055E+01    0.6103515625E-04    0    0
  -24    2    6    6    0    0   -0.1716223907E+02    0.2566136360E+02   -0.1509860009E+00    0.3091197586E+02    0.1574634552E+01    0    0
 -211    1   11   11    0    0   -0.6144599319E+00    0.1051404834E+01   -0.5469592661E-01    0.1226981640E+01    0.1395680159E+00    0    0
 -211    1   11   11    0    0   -0.2614920139E+01    0.4097363472E+01   -0.1765171997E-01    0.4862713814E+01    0.1395680159E+00    0    0
 -211    1   11   11    0    0   -0.3324815512E+01    0.4642581940E+01   -0.1854023486E+00    0.5715051651E+01    0.1395680010E+00    0    0
  211    1   11   11    0    0   -0.6055521011E+01    0.9439973831E+01    0.1654369682E+00    0.1121736526E+02    0.1395679414E+00    0    0
  211    1   11   11    0    0   -0.3344797373E+01    0.4554373264E+01   -0.1283330023E+00    0.5653842449E+01    0.1395679563E+00    0    0
  111    1   11   11    0    0   -0.1207726002E+01    0.1875665903E+01    0.6966001540E-01    0.2236021519E+01    0.1349640042E+00    0    0
  -16    1    9    9    0    0    0.1115430450E+02    0.1457347488E+02   -0.1670722961E+02    0.2481806183E+02    0.2114319796E-03    0    0
  323    2    9    9    0    0    0.8001342773E+01    0.1209933758E+02   -0.1385171890E+02    0.2007497978E+02    0.8480720520E+00    0    0
  211    1   19   19    0    0    0.2693712711E+01    0.4507832050E+01   -0.5120438099E+01    0.7335871220E+01    0.1395681649E+00    0    0
  310    1   19   19    0    0    0.5307631016E+01    0.7591506004E+01   -0.8731281281E+01    0.1273910904E+02    0.4977200329E+00    0    0
</event>
<event>
   15 9999    1    0.9119999695E+02    0.7565275169E-02    0.1185000000E+00
   11   -1    0    0    0    0    0.0000000000E+00    0.0000000000E+00    0.8000000000E+02    0.8000000000E+02    0.5109988851E-03    0    0
  -11   -1    0    0    0    0    0.0000000000E+00    0.0000000000E+00   -0.8000000000E+02    0.8000000000E+02    0.5109988851E-03    0    0
  -24    2    1    2    0    0    0.7875603437E+00   -0.8457504272E+01    0.8647379875E+01    0.8055011749E+02    0.7963287354E+02    0    0
   24    2    1    2    0    0   -0.7875717878E+00    0.8457499504E+01   -0.8598991394E+01    0.7940149689E+02    0.7847614288E+02    0    0
   22    1    1    2    0    0    0.1142156179E-04    0.4737336440E-05   -0.4838837683E-01    0.4838837683E-01    0.0000000000E+00    0    0
   15    2    3    3    0    0    0.3099239731E+02    0.8381113052E+01    0.2646794510E+02    0.4164710999E+02    0.1777029991E+01    0    0
  -16    1    3    3    0    0   -0.3020483780E+02   -0.1683861732E+02   -0.1782056618E+02    0.3890300369E+02    0.0000000000E+00    0    0
   16    1    4    4    0    0    0.3619596863E+02    0.1782684135E+02   -0.4587672353E+00    0.4035040283E+02    0.0000000000E+00    0    0
  -15    2    4    4    0    0   -0.3698353958E+02   -0.9369341850E+01   -0.8140224457E+01    0.3905109406E+02    0.1777029991E+01    0    0
   16    1    6    6    0    0    0.2551417160E+02    0.7196078777E+01    0.2128528404E+02    0.3399734879E+02    0.3452669771E-03    0    0
 -321    1    6    6    0    0    0.5479447842E+01    0.1185364008E+01    0.5183704853E+01    0.7651401043E+01    0.4936670065E+00    0    0
  -16    1    9    9    0    0   -0.2353601933E+01   -0.7724213600E+00   -0.1783618480E+00    0.2483523607E+01    0.1726334885E-03    0    0
  323    2    9    9    0    0   -0.3463139725E+02   -0.8597289085E+01   -0.7962182999E+01    0.3656910706E+02    0.8101796508E+00    0    0
  211    1   13   13    0    0   -0.5609287739E+01   -0.1209122539E+01   -0.1253173470E+01    0.5875032902E+01    0.1395680457E+00    0    0
  310    1   13   13    0    0   -0.2902210999E+02   -0.7388166904E+01   -0.6709009647E+01    0.3069407654E+02    0.4977199435E+00    0    0
</event>
<event>
   18 9999    1    0.9119999695E+02    0.7565275169E-02    0.1185000000E+00
   11   -1    0    0    0    0    0.0000000000E+00    0.0000000000E+00    0.8000000000E+02    0.8000000000E+02    0.5109988851E-03    0    0
  -11   -1    0    0    0    0    0.0000000000E+00    0.0000000000E+00   -0.8000000000E+02    0.8000000000E+02    0.5109988851E-03    0    0
  -24    2    1    2    0    0   -0.4069217205E+01    0.9153024673E+01   -0.6304912567E+01    0.7971976471E+02    0.7883623505E+02    0    0
   24    2    1    2    0    0    0.4069230556E+01   -0.9152976036E+01    0.6305124283E+01    0.8028002167E+02    0.7940271759E+02    0    0
   22    1    1    2    0    0   -0.1346336740E-04   -0.4892066863E-04   -0.2115501993E-03    0.2175499540E-03    0.0000000000E+00    0    0
   15    2    3    3    0    0   -0.4436632156E+01   -0.9724658012E+01   -0.3981135941E+02    0.4125960159E+02    0.1777029991E+01    0    0
  -16    1    3    3    0    0    0.3674147427E+00    0.1887768364E+02    0.3350644684E+02    0.3846015930E+02    0.0000000000E+00    0    0
   16    1    4    4    0    0   -0.2680600357E+02   -0.3185004807E+02    0.4572614670E+01    0.4187954330E+02    0.0000000000E+00    0    0
  -15    2    4    4    0    0    0.3087523460E+02    0.2269707108E+02    0.1732509494E+01    0.3840047836E+02    0.1777029991E+01    0    0
   16    1    6    6    0    0   -0.3700033948E-01   -0.2708360553E+00   -0.9588252306E+00    0.9970290661E+00    0.2642899744E-04    0    0
  -24    2    6    6    0    0   -0.4399806023E+01   -0.9454203606E+01   -0.3885409927E+02    0.4026419449E+02    0.1680530548E+01    0    0
 -321    1   11   11    0    0   -0.1534474254E+01   -0.4867646694E+01   -0.1941868019E+02    0.2008425903E+02    0.4936669469E+00    0    0
  310    1   11   11    0    0   -0.2865331888E+01   -0.4586557865E+01   -0.1943541908E+02    0.2017993736E+02    0.4977199435E+00    0    0
  -16    1    9    9    0    0    0.1530079484E+01    0.9216167927E+00   -0.3137481213E-01    0.1786478519E+01    0.5878100637E-03    0    0
   24    2    9    9    0    0    0.2934636879E+02    0.2177634621E+02    0.1763952374E+01    0.3661550903E+02    0.1471465111E+01    0    0
  221    1   15   15    0    0    0.2041221619E+02    0.1526823902E+02    0.1272936583E+01    0.2552840042E+02    0.5488001108E+00    0    0
  211    1   15   15    0    0    0.7117649555E+01    0.5470991135E+01    0.4748241603E+00    0.8990974426E+01    0.1395679563E+00    0    0
  111    1   15   15    0    0    0.1816503644E+01    0.1037117600E+01    0.1619174145E-01    0.2096133471E+01    0.1349640191E+00    0    0
</event>
<event>
   17 9999    1    0.9119999695E+02    0.7565275169E-02    0.1185000000E+00
   11   -1    0    0    0    0    0.0000000000E+00    0.0000000000E+00    0.8000000000E+02    0.8000000000E+02    0.5109988851E-03    0    0
  -11   -1    0    0    0    0    0.0000000000E+00    0.0000000000E+00   -0.8000000000E+02    0.8000000000E+02    0.5109988851E-03    0    0
  -24    2    1    2    0    0   -0.2089233780E+02   -0.3852466822E+01   -0.1196229935E+02    0.7663757324E+02    0.7265597534E+02    0    0
   24    2    1    2    0    0    0.2089233780E+02    0.3852466822E+01    0.1196229935E+02    0.8336242676E+02    0.7971741486E+02    0    0
   15    2    3    3    0    0   -0.2380657196E+02   -0.2204687309E+02   -0.3458765411E+02    0.4745820236E+02    0.1777029991E+01    0    0
  -16    1    3    3    0    0    0.2914233685E+01    0.1819440651E+02    0.2262535286E+02    0.2917937279E+02    0.0000000000E+00    0    0
   16    1    4    4    0    0    0.4928750992E+02   -0.9237424850E+01    0.1374143219E+02    0.5199438095E+02    0.0000000000E+00    0    0
  -15    2    4    4    0    0   -0.2839517212E+02    0.1308989143E+02   -0.1779132724E+01    0.3136804390E+02    0.1777029991E+01    0    0
   16    1    5    5    0    0   -0.6011053562E+01   -0.5451341629E+01   -0.8080044746E+01    0.1145150757E+02    0.5033087800E-03    0    0
  -24    2    5    5    0    0   -0.1779645348E+02   -0.1659639931E+02   -0.2650896835E+02    0.3600856400E+02    0.1317926407E+01    0    0
  111    1   10   10    0    0   -0.1559409142E+01   -0.1635349035E+01   -0.2769544601E+01    0.3576970339E+01    0.1349632293E+00    0    0
  111    1   10   10    0    0   -0.8058958054E+01   -0.7215597153E+01   -0.1192068768E+02    0.1609759712E+02    0.1349639744E+00    0    0
 -321    1   10   10    0    0   -0.8178089142E+01   -0.7745454788E+01   -0.1181873989E+02    0.1633399963E+02    0.4936670065E+00    0    0
  -16    1    8    8    0    0   -0.6881553173E+01    0.3660786867E+01   -0.1295296289E-01    0.7794697285E+01    0.2114319796E-03    0    0
  323    2    8    8    0    0   -0.2151473618E+02    0.9429619789E+01   -0.1766249776E+01    0.2357458115E+02    0.9163273573E+00    0    0
  211    1   15   15    0    0   -0.6445138454E+01    0.2741643429E+01   -0.8145984411E+00    0.7052621365E+01    0.1395680606E+00    0    0
  130    1   15   15    0    0   -0.1506959534E+02    0.6687975883E+01   -0.9516512752E+00    0.1652195740E+02    0.4977198839E+00    0    0
</event>
<event>
   20 9999    1    0.9119999695E+02    0.7565275169E-02    0.1185000000E+00
   11   -1    0    0    0    0    0.0000000000E+00    0.0000000000E+00    0.8000000000E+02    0.8000000000E+02    0.5109988851E-03    0    0
  -11   -1    0    0    0    0    0.0000000000E+00    0.0000000000E+00   -0.8000000000E+02    0.8000000000E+02    0.5109988851E-03    0    0
  -24    2    1    2    0    0    0.1161921501E+02    0.7414977551E+01    0.1340010929E+02    0.7154505157E+02    0.6891402435E+02    0    0
   24    2    1    2    0    0   -0.1162076283E+02   -0.7411103249E+01   -0.1329602909E+02    0.8835078430E+02    0.8625028229E+02    0    0
   22    1    1    2    0    0    0.1548245433E-02   -0.3874178277E-02   -0.1040804908E+00    0.1041640788E+00    0.0000000000E+00    0    0
   15    2    3    3    0    0    0.1578941917E+02   -0.2851842308E+02    0.1361112881E+02    0.3536985779E+02    0.1777029991E+01    0    0
  -16    1    3    3    0    0   -0.4170204639E+01    0.3593339920E+02   -0.2110188454E+00    0.3617518997E+02    0.0000000000E+00    0    0
   16    1    4    4    0    0    0.2523639202E+01   -0.3293347549E+02    0.2409756660E+02    0.4088612366E+02    0.0000000000E+00    0    0
  -15    2    4    4    0    0   -0.1414440155E+02    0.2552236938E+02   -0.3739359665E+02    0.4746466446E+02    0.1777029991E+01    0    0
   16    1    6    6    0    0    0.3411506891E+01   -0.6533256054E+01    0.3146270752E+01    0.8013790131E+01    0.7780486339E-04    0    0
  -24    2    6    6    0    0    0.1237853336E+02   -0.2198628807E+02    0.1046539307E+02    0.2735746002E+02    0.1510343909E+01    0    0
 -211    1   11   11    0    0    0.3099221468E+01   -0.5260798454E+01    0.2528103828E+01    0.6609989643E+01    0.1395679861E+00    0    0
 -211    1   11   11    0    0    0.2196702003E+01   -0.4193463802E+01    0.1972208858E+01    0.5130275249E+01    0.1395679861E+00    0    0
 -211    1   11   11    0    0    0.1412286878E+01   -0.3261938810E+01    0.1610092282E+01    0.3904699087E+01    0.1395679414E+00    0    0
  211    1   11   11    0    0    0.4491550446E+01   -0.7279764175E+01    0.3390197754E+01    0.9202277184E+01    0.1395679712E+00    0    0
  211    1   11   11    0    0    0.1178773046E+01   -0.1990323544E+01    0.9647905827E+00    0.2510217905E+01    0.1395679861E+00    0    0
  -16    1    9    9    0    0   -0.7419536114E+01    0.1277669907E+02   -0.1981446457E+02    0.2471652412E+02    0.0000000000E+00    0    0
  323    2    9    9    0    0   -0.6725422382E+01    0.1274667549E+02   -0.1758060265E+02    0.2275000763E+02    0.8810321093E+00    0    0
  211    1   18   18    0    0   -0.3310659170E+01    0.6445946217E+01   -0.9193608284E+01    0.1170694637E+02    0.1395680308E+00    0    0
  310    1   18   18    0    0   -0.3414763451E+01    0.6300730228E+01   -0.8386993408E+01    0.1104306126E+02    0.4977199733E+00    0    0
</event>
<event>
   18 9999    1    0.9119999695E+02    0.7565275169E-02    0.1185000000E+00
   11   -1    0    0    0    0    0.0000000000E+00    0.0000000000E+00    0.8000000000E+02    0.8000000000E+02    0.5109988851E-03    0    0
  -11   -1    0    0    0    0    0.0000000000E+00    0.0000000000E+00   -0.8000000000E+02    0.8000000000E+02    0.5109988851E-03    0    0
  -24    2    1    2    0    0    0.2561815071E+02    0.1758789635E+02    0.1432601166E+02    0.8637216187E+02    0.7930506134E+02    0    0
   24    2    1    2    0    0   -0.2561816216E+02   -0.1758790207E+02   -0.1432956886E+02    0.7362427521E+02    0.6518875122E+02    0    0
   22    1    1    2    0    0    0.1155599057E-04    0.6744079656E-05    0.3557469463E-02    0.3557494609E-02    0.0000000000E+00    0    0
   15    2    3    3    0    0   -0.1952681732E+02   -0.1269321442E+02    0.2124436569E+02    0.3157364655E+02    0.1777029991E+01    0    0
  -16    1    3    3    0    0    0.4514496994E+02    0.3028111076E+02   -0.6918354034E+01    0.5479851913E+02    0.0000000000E+00    0    0
   16    1    4    4    0    0   -0.8044127464E+01   -0.4124258804E+02   -0.1333720493E+02    0.4408560181E+02    0.0000000000E+00    0    0
  -15    2    4    4    0    0   -0.1757403564E+02    0.2365468597E+02   -0.9923638105E+00    0.2953867722E+02    0.1777029991E+01    0    0
   16    1    6    6    0    0   -0.4639357567E+01   -0.3144341230E+01    0.4964161396E+01    0.7486883163E+01    0.6364945439E-03    0    0
  -24    2    6    6    0    0   -0.1488822746E+02   -0.9549371719E+01    0.1628103828E+02    0.2408800507E+02    0.1519844651E+01    0    0
 -321    1   11   11    0    0   -0.6972684383E+01   -0.4660692692E+01    0.7570583820E+01    0.1130919266E+02    0.4936671853E+00    0    0
 -211    1   11   11    0    0   -0.4489007592E+00   -0.1540118158E+00    0.4901632667E+00    0.6963985562E+00    0.1395684630E+00    0    0
  321    1   11   11    0    0   -0.7466642380E+01   -0.4734667778E+01    0.8220292091E+01    0.1208241463E+02    0.4936670959E+00    0    0
  -16    1    9    9    0    0   -0.3246995211E+01    0.4739585876E+01   -0.7387711406E+00    0.5792446613E+01    0.1726334885E-03    0    0
  323    2    9    9    0    0   -0.1432773209E+02    0.1891603088E+02   -0.2536317110E+00    0.2374739456E+02    0.8799318671E+00    0    0
  211    1   16   16    0    0   -0.5895343304E+01    0.7594696999E+01    0.1456596553E+00    0.9616402626E+01    0.1395680159E+00    0    0
  310    1   16   16    0    0   -0.8432388306E+01    0.1132133389E+02   -0.3992913663E+00    0.1413099194E+02    0.4977199733E+00    0    0
</event>
<event>
   19 9999    1    0.9119999695E+02    0.7565275169E-02    0.1185000000E+00
   11   -1    0    0    0    0    0.0000000000E+00    0.0000000000E+00    0.8000000000E+02    0.8000000000E+02    0.5109988851E-03    0    0
  -11   -1    0    0    0    0    0.0000000000E+00    0.0000000000E+00   -0.8000000000E+02    0.8000000000E+02    0.5109988851E-03    0    0
  -24    2    1    2    0    0   -0.3786678553E+01    0.1047908115E+02    0.1094124508E+02    0.7969890594E+02    0.7815404510E+02    0    0
   24    2    1    2    0    0    0.3764154911E+01   -0.1051634026E+02   -0.1030374432E+02    0.7965949249E+02    0.7819658661E+02    0    0
   22    1    1    2    0    0    0.2253176831E-01    0.3726691008E-01   -0.6388084292E+00    0.6402911544E+00    0.0000000000E+00    0    0
   22    1    1    2    0    0   -0.8060971595E-05   -0.7827674381E-05    0.1225847867E-02    0.1225899439E-02    0.0000000000E+00    0    0
   22    1    1    2    0    0    0.8125137185E-07    0.6687465692E-08    0.8180284203E-04    0.8180288569E-04    0.0000000000E+00    0    0
   15    2    3    3    0    0   -0.3354105759E+02    0.1375413132E+02   -0.1577633953E+02    0.3957561874E+02    0.1777029991E+01    0    0
  -16    1    3    3    0    0    0.2975437927E+02   -0.3275050640E+01    0.2671758461E+02    0.4012329102E+02    0.0000000000E+00    0    0
   16    1    4    4    0    0    0.2108082962E+02   -0.2187870407E+02    0.2456081009E+02    0.3906804657E+02    0.0000000000E+00    0    0
  -15    2    4    4    0    0   -0.1731667519E+02    0.1136236286E+02   -0.3486455536E+02    0.4059144592E+02    0.1777029991E+01    0    0
   16    1    8    8    0    0   -0.8827815056E+01    0.3570471525E+01   -0.4177374363E+01    0.1039851189E+02    0.2100509591E-03    0    0
  -24    2    8    8    0    0   -0.2471456337E+02    0.1018420219E+02   -0.1159958649E+02    0.2917866325E+02    0.1521964431E+01    0    0
  310    1   13   13    0    0   -0.6184332848E+01    0.2716265440E+01   -0.2874200821E+01    0.7357501030E+01    0.4977200329E+00    0    0
 -211    1   13   13    0    0   -0.1227207184E+01    0.3552595377E+00   -0.5056517720E+00    0.1381090045E+01    0.1395678520E+00    0    0
  130    1   13   13    0    0   -0.1730302620E+02    0.7112677097E+01   -0.8219734192E+01    0.2044007492E+02    0.4977199435E+00    0    0
  -16    1   11   11    0    0   -0.4916513562E+00    0.4152041972E+00   -0.7927983999E+00    0.1021099806E+01    0.4315837214E-04    0    0
  -11    1   11   11    0    0   -0.1210661125E+02    0.7106365204E+01   -0.2391468811E+02    0.2773053932E+02    0.5179004511E-03    0    0
   12    1   11   11    0    0   -0.4719093323E+01    0.3841241121E+01   -0.1015843868E+02    0.1184140396E+02    0.2598478168E-03    0    0
</event>
<event>
   19 9999    1    0.9119999695E+02    0.7565275169E-02    0.1185000000E+00
   11   -1    0    0    0    0    0.0000000000E+00    0.0000000000E+00    0.8000000000E+02    0.8000000000E+02    0.5109988851E-03    0    0
  -11   -1    0    0    0    0    0.0000000000E+00    0.0000000000E+00   -0.8000000000E+02    0.8000000000E+02    0.5109988851E-03    0    0
  -24    2    1    2    0    0   -0.2275142860E+02    0.2029973602E+02   -0.3745119333E+01    0.7242531586E+02    0.6558729553E+02    0    0
   24    2    1    2    0    0    0.2275142860E+02   -0.2029973602E+02    0.3746376514E+01    0.8757343292E+02    0.8200831604E+02    0    0
   22    1    1    2    0    0   -0.2620323336E-07   -0.4021446642E-07   -0.1257138443E-02    0.1257138443E-02    0.0000000000E+00    0    0
   15    2    3    3    0    0   -0.2693345070E+02   -0.1887034988E+02   -0.1942029953E+01    0.3299136734E+02    0.1777029991E+01    0    0
  -16    1    3    3    0    0    0.4182023048E+01    0.3917008591E+02   -0.1803089499E+01    0.3943394852E+02    0.0000000000E+00    0    0
   16    1    4    4    0    0   -0.1264831829E+02   -0.1456914139E+02    0.3500402832E+02    0.3996901321E+02    0.0000000000E+00    0    0
  -15    2    4    4    0    0    0.3539974594E+02   -0.5730595589E+01   -0.3125765419E+02    0.4760441589E+02    0.1777029991E+01    0    0
   16    1    6    6    0    0   -0.2689486146E+00   -0.1345897317E+00   -0.7856073976E-01    0.3108368814E+00    0.1455595775E-03    0    0
  -24    2    6    6    0    0   -0.2666556358E+02   -0.1873650360E+02   -0.1863545656E+01    0.3268182755E+02    0.1587534904E+01    0    0
 -321    1   11   11    0    0   -0.1440784359E+02   -0.1044269657E+02   -0.7209743857E+00    0.1781570625E+02    0.4936669469E+00    0    0
  111    1   11   11    0    0   -0.3115029335E+01   -0.2285940409E+01   -0.4626207948E+00    0.3893734217E+01    0.1349634528E+00    0    0
  130    1   11   11    0    0   -0.9142688751E+01   -0.6007866383E+01   -0.6799505353E+00    0.1097238731E+02    0.4977200031E+00    0    0
  -16    1    9    9    0    0    0.6268560410E+01   -0.1111885905E+01   -0.5302079678E+01    0.8285118103E+01    0.5407728604E-03    0    0
   24    2    9    9    0    0    0.2913257790E+02   -0.4618934631E+01   -0.2595680237E+02    0.3932117081E+02    0.1535301924E+01    0    0
  321    1   16   16    0    0    0.1052831364E+02   -0.1766374469E+01   -0.9887926102E+01    0.1455954170E+02    0.4936671555E+00    0    0
  111    1   16   16    0    0    0.4333247185E+01   -0.5871872902E+00   -0.3463781834E+01    0.5580127239E+01    0.1349631846E+00    0    0
  310    1   16   16    0    0    0.1427101994E+02   -0.2265373707E+01   -0.1260509872E+02    0.1918150520E+02    0.4977199733E+00    0    0
</event>
<event>
   22 9999    1    0.9119999695E+02    0.7565275169E-02    0.1185000000E+00
   11   -1    0    0    0    0    0.0000000000E+00    0.0000000000E+00    0.8000000000E+02    0.8000000000E+02    0.5109988851E-03    0    0
  -11   -1    0    0    0    0    0.0000000000E+00    0.0000000000E+00   -0.8000000000E+02    0.8000000000E+02    0.5109988851E-03    0    0
  -24    2    1    2    0    0   -0.1527278519E+02    0.3057735682E+01   -0.1044521213E+01    0.7889958954E+02    0.7733981323E+02    0    0
   24    2    1    2    0    0    0.1527278042E+02   -0.3057742119E+01    0.1061521769E+01    0.8108340454E+02    0.7956622314E+02    0    0
   22    1    1    2    0    0    0.4623257723E-06    0.1216502369E-05   -0.1699707098E-01    0.1699707098E-01    0.0000000000E+00    0    0
   15    2    3    3    0    0   -0.3890736771E+02   -0.2061178017E+02    0.6682783127E+01    0.4456956482E+02    0.1777029991E+01    0    0
  -16    1    3    3    0    0    0.2363458252E+02    0.2366951561E+02   -0.7727304459E+01    0.3433002853E+02    0.0000000000E+00    0    0
   16    1    4    4    0    0   -0.1842732239E+02    0.2902518463E+02    0.2739310026E+01    0.3448958206E+02    0.0000000000E+00    0    0
  -15    2    4    4    0    0    0.3370010376E+02   -0.3208292770E+02   -0.1677788258E+01    0.4659381866E+02    0.1777029991E+01    0    0
   16    1    6    6    0    0   -0.9022145867E+00   -0.5679646134E+00    0.1559906751E+00    0.1077454448E+01    0.9380975825E-04    0    0
  -24    2    6    6    0    0   -0.3800668716E+02   -0.2004462624E+02    0.6527055740E+01    0.4349386597E+02    0.1678909302E+01    0    0
 -211    1   11   11    0    0   -0.5546204567E+01   -0.2501008987E+01    0.8593708277E+00    0.6146009445E+01    0.1395679265E+00    0    0
 -211    1   11   11    0    0   -0.1919921994E+01   -0.1201031685E+01    0.4751654565E+00    0.2318154335E+01    0.1395680606E+00    0    0
  211    1   11   11    0    0   -0.6571722031E+01   -0.3637509823E+01    0.1089384913E+01    0.7591129780E+01    0.1395680457E+00    0    0
  111    1   11   11    0    0   -0.7865892887E+01   -0.4073810577E+01    0.1333341837E+01    0.8959030151E+01    0.1349639148E+00    0    0
  111    1   11   11    0    0   -0.1610294724E+02   -0.8631266594E+01    0.2769793272E+01    0.1847954559E+02    0.1349641383E+00    0    0
  -16    1    9    9    0    0    0.1027901840E+02   -0.1018795109E+02   -0.6998747587E+00    0.1448938847E+02    0.1364787604E-03    0    0
   24    2    9    9    0    0    0.2342241096E+02   -0.2189624023E+02   -0.9779795408E+00    0.3210626602E+02    0.1342061400E+01    0    0
  211    1   18   18    0    0    0.6562381268E+01   -0.6253200531E+01   -0.2478342056E+00    0.9069083214E+01    0.1395678073E+00    0    0
  211    1   18   18    0    0    0.4958908558E+01   -0.4861761570E+01   -0.5728648901E+00    0.6969587803E+01    0.1395681202E+00    0    0
 -211    1   18   18    0    0    0.8368665695E+01   -0.7494526386E+01   -0.2946090698E+00    0.1123871708E+02    0.1395678073E+00    0    0
  111    1   18   18    0    0    0.3532458067E+01   -0.3286752939E+01    0.1373284906E+00    0.4828879833E+01    0.1349639744E+00    0    0
</event>
<event>
   19 9999    1    0.9119999695E+02    0.7565275169E-02    0.1185000000E+00
   11   -1    0    0    0    0    0.0000000000E+00    0.0000000000E+00    0.8000000000E+02    0.8000000000E+02    0.5109988851E-03    0    0
  -11   -1    0    0    0    0    0.0000000000E+00    0.0000000000E+00   -0.8000000000E+02    0.8000000000E+02    0.5109988851E-03    0    0
  -24    2    1    2    0    0   -0.1978088379E+01    0.8389271736E+01   -0.1316537857E+02    0.7876222992E+02    0.7717427826E+02    0    0
   24    2    1    2    0    0    0.1978088379E+01   -0.8389272690E+01    0.1316322422E+02    0.8123518372E+02    0.7969687653E+02    0    0
   22    1    1    2    0    0   -0.8722137324E-07    0.5161685976E-06    0.2371691866E-02    0.2371692099E-02    0.0000000000E+00    0    0
   22    1    1    2    0    0    0.1020678564E-07    0.4381319485E-07   -0.2168911742E-03    0.2168911742E-03    0.0000000000E+00    0    0
   15    2    3    3    0    0   -0.1164339542E+02    0.3373607635E+01    0.3096894646E+02    0.3330440521E+02    0.1777029991E+01    0    0
  -16    1    3    3    0    0    0.9665307045E+01    0.5015664101E+01   -0.4413432693E+02    0.4545782471E+02    0.0000000000E+00    0    0
   16    1    4    4    0    0   -0.2029741287E+02    0.2966798019E+02    0.7736415863E+01    0.3676990891E+02    0.0000000000E+00    0    0
  -15    2    4    4    0    0    0.2227550125E+02   -0.3805725098E+02    0.5426807880E+01    0.4446527481E+02    0.1777029991E+01    0    0
   16    1    7    7    0    0   -0.6089000225E+01    0.1964442015E+01    0.1397952938E+02    0.1537407589E+02    0.2441406250E-03    0    0
 -211    1    7    7    0    0   -0.5554853916E+01    0.1409298539E+01    0.1699063873E+02    0.1793164253E+02    0.1395681798E+00    0    0
  -16    1   10   10    0    0    0.3876309156E+01   -0.6694929123E+01    0.8196121454E+00    0.7779435158E+01    0.0000000000E+00    0    0
   24    2   10   10    0    0    0.1840007019E+02   -0.3136382103E+02    0.4607409477E+01    0.3668758774E+02    0.1580842972E+01    0    0
  211    1   14   14    0    0    0.8058078766E+01   -0.1388034630E+02    0.1862657547E+01    0.1615814400E+02    0.1395679563E+00    0    0
  211    1   14   14    0    0    0.3880687952E+01   -0.6310667038E+01    0.1225919724E+01    0.7510433674E+01    0.1395679116E+00    0    0
  211    1   14   14    0    0    0.3061665773E+01   -0.5084900379E+01    0.5171003938E+00    0.5959604263E+01    0.1395679861E+00    0    0
 -211    1   14   14    0    0    0.4979155958E+00   -0.1040874362E+01    0.2346832007E+00    0.1185704350E+01    0.1395679414E+00    0    0
 -211    1   14   14    0    0    0.2901721478E+01   -0.5047034264E+01    0.7670487761E+00    0.5873703003E+01    0.1395680010E+00    0    0
</event>
<event>
   20 9999    1    0.9119999695E+02    0.7565275169E-02    0.1185000000E+00
   11   -1    0    0    0    0    0.0000000000E+00    0.0000000000E+00    0.8000000000E+02    0.8000000000E+02    0.5109988851E-03    0    0
  -11   -1    0    0    0    0    0.0000000000E+00    0.0000000000E+00   -0.8000000000E+02    0.8000000000E+02    0.5109988851E-03    0    0
  -24    2    1    2    0    0   -0.2702189827E+02    0.5701461792E+01    0.9256044388E+01    0.7294284058E+02    0.6687521362E+02    0    0
   24    2    1    2    0    0    0.2702189636E+02   -0.5701469898E+01   -0.9255575180E+01    0.8705669403E+02    0.8203969574E+02    0    0
   22    1    1    2    0    0    0.2327665698E-05    0.8157611774E-05   -0.4694583185E-03    0.4695349489E-03    0.0000000000E+00    0    0
   15    2    3    3    0    0    0.6337460995E+01    0.4242292881E+01    0.3173717117E+02    0.3268893433E+02    0.1777029991E+01    0    0
  -16    1    3    3    0    0   -0.3335935974E+02    0.1459169030E+01   -0.2248112679E+02    0.4025390625E+02    0.0000000000E+00    0    0
   16    1    4    4    0    0    0.1529054546E+02   -0.4348908615E+02    0.1124119520E+01    0.4611252594E+02    0.0000000000E+00    0    0
  -15    2    4    4    0    0    0.1173135090E+02    0.3778761673E+02   -0.1037969398E+02    0.4094416428E+02    0.1777029991E+01    0    0
   16    1    6    6    0    0    0.2867181553E-02    0.2070332319E-01   -0.2762332791E-02    0.2108574286E-01    0.3561383055E-03    0    0
  -24    2    6    6    0    0    0.6334843159E+01    0.4221756458E+01    0.3174118233E+02    0.3266913223E+02    0.1347647548E+01    0    0
  111    1   11   11    0    0    0.1596711397E+01    0.1498436213E+01    0.8668536186E+01    0.8941842079E+01    0.1349641681E+00    0    0
  111    1   11   11    0    0    0.8458720446E+00    0.7948883176E+00    0.4827995777E+01    0.4967404366E+01    0.1349638104E+00    0    0
  111    1   11   11    0    0    0.1980531931E+01    0.9586207867E+00    0.8493922234E+01    0.8775328636E+01    0.1349640042E+00    0    0
 -211    1   11   11    0    0    0.1911728144E+01    0.9698111415E+00    0.9750728607E+01    0.9984560013E+01    0.1395680010E+00    0    0
  -16    1    9    9    0    0    0.6212106943E+00    0.1923643589E+01   -0.8288294077E+00    0.2184780359E+01    0.3860202269E-03    0    0
   24    2    9    9    0    0    0.1111060238E+02    0.3586546326E+02   -0.9551274300E+01    0.3876099777E+02    0.1187894344E+01    0    0
  211    1   17   17    0    0    0.3786431074E+01    0.1319799042E+02   -0.3390874624E+01    0.1414360332E+02    0.1395678967E+00    0    0
  111    1   17   17    0    0    0.4572728157E+01    0.1521993732E+02   -0.4258070469E+01    0.1645313644E+02    0.1349640638E+00    0    0
   22    1   17   17    0    0    0.2751444101E+01    0.7447536469E+01   -0.1902329445E+01    0.8164258003E+01    0.2363881504E-03    0    0
</event>
<event>
   18 9999    1    0.9119999695E+02    0.7565275169E-02    0.1185000000E+00
   11   -1    0    0    0    0    0.0000000000E+00    0.0000000000E+00    0.8000000000E+02    0.8000000000E+02    0.5109988851E-03    0    0
  -11   -1    0    0    0    0    0.0000000000E+00    0.0000000000E+00   -0.8000000000E+02    0.8000000000E+02    0.5109988851E-03    0    0
  -24    2    1    2    0    0   -0.8612973213E+01    0.5492327213E+01    0.1459764194E+02    0.7850270844E+02    0.7645413208E+02    0    0
   24    2    1    2    0    0    0.8612973213E+01   -0.5492327213E+01   -0.1459764194E+02    0.8149729156E+02    0.7952590179E+02    0    0
   15    2    3    3    0    0   -0.3100209427E+02    0.1751424599E+02    0.3183428955E+02    0.4779600906E+02    0.1777029991E+01    0    0
  -16    1    3    3    0    0    0.2238912010E+02   -0.1202191925E+02   -0.1723664665E+02    0.3070669746E+02    0.0000000000E+00    0    0
   16    1    4    4    0    0   -0.2792933655E+02    0.9884008408E+01    0.1381504250E+02    0.3268939972E+02    0.0000000000E+00    0    0
  -15    2    4    4    0    0    0.3654230881E+02   -0.1537633514E+02   -0.2841268349E+02    0.4880789566E+02    0.1777029991E+01    0    0
   16    1    5    5    0    0   -0.2072012329E+02    0.1106185532E+02    0.2069774055E+02    0.3130630302E+02    0.2516543900E-03    0    0
  -24    2    5    5    0    0   -0.1028318977E+02    0.6453080177E+01    0.1113780022E+02    0.1649158478E+02    0.7318141460E+00    0    0
  111    1   10   10    0    0   -0.3949419260E+01    0.2404795647E+01    0.4206303596E+01    0.6252372265E+01    0.1349639744E+00    0    0
  111    1   10   10    0    0   -0.1796823740E+01    0.1230626225E+01    0.1909818888E+01    0.2899765491E+01    0.1349641681E+00    0    0
  111    1   10   10    0    0   -0.2107584238E+01    0.1254856706E+01    0.2165081501E+01    0.3274502993E+01    0.1349640191E+00    0    0
 -211    1   10   10    0    0   -0.2429363728E+01    0.1562802315E+01    0.2856597424E+01    0.4064946175E+01    0.1395680457E+00    0    0
  -16    1    8    8    0    0    0.2113513565E+02   -0.8884901047E+01   -0.1722186089E+02    0.2867451668E+02    0.1726334885E-03    0    0
  213    2    8    8    0    0    0.1540861225E+02   -0.6492039204E+01   -0.1119194031E+02    0.2013529778E+02    0.7738051414E+00    0    0
  211    1   16   16    0    0    0.9384984016E+01   -0.4018353462E+01   -0.6413766384E+01    0.1205740356E+02    0.1395677477E+00    0    0
  111    1   16   16    0    0    0.6023629665E+01   -0.2473686218E+01   -0.4778174877E+01    0.8077896118E+01    0.1349641085E+00    0    0
</event>
<event>
   17 9999    1    0.9119999695E+02    0.7565275169E-02    0.1185000000E+00
   11   -1    0    0    0    0    0.0000000000E+00    0.0000000000E+00    0.8000000000E+02    0.8000000000E+02    0.5109988851E-03    0    0
  -11   -1    0    0    0    0    0.0000000000E+00    0.0000000000E+00   -0.8000000000E+02    0.8000000000E+02    0.5109988851E-03    0    0
  -24    2    1    2    0    0    0.5908375263E+01    0.1080930805E+02    0.2254577637E+02    0.7562335205E+02    0.7112545013E+02    0    0
   24    2    1    2    0    0   -0.5908706188E+01   -0.1080927467E+02   -0.2244088173E+02    0.8427175140E+02    0.8028936005E+02    0    0
   22    1    1    2    0    0    0.3308902087E-03   -0.3288027438E-04   -0.1048953757E+00    0.1048959047E+00    0.0000000000E+00    0    0
   15    2    3    3    0    0   -0.1156005669E+02    0.6369059563E+01    0.4494291687E+02    0.4687454987E+02    0.1777029991E+01    0    0
  -16    1    3    3    0    0    0.1746843147E+02    0.4440248489E+01   -0.2239714050E+02    0.2874880600E+02    0.0000000000E+00    0    0
   16    1    4    4    0    0    0.3316116714E+02   -0.6678263187E+01   -0.2880835152E+02    0.4443178177E+02    0.0000000000E+00    0    0
  -15    2    4    4    0    0   -0.3906987381E+02   -0.4131011486E+01    0.6367469311E+01    0.3983996582E+02    0.1777029991E+01    0    0
   16    1    6    6    0    0   -0.5872822925E-01   -0.4057032615E-01    0.3893136382E+00    0.3958033919E+00    0.5100864801E-03    0    0
  -24    2    6    6    0    0   -0.1150178337E+02    0.6409880161E+01    0.4455537033E+02    0.4648059082E+02    0.1373541951E+01    0    0
 -211    1   11   11    0    0   -0.3291623116E+01    0.1536415339E+01    0.1185712433E+02    0.1240186405E+02    0.1395679712E+00    0    0
 -211    1   11   11    0    0   -0.5274137259E+00    0.3082047403E+00    0.2521399975E+01    0.2598093987E+01    0.1395680755E+00    0    0
  211    1   11   11    0    0   -0.1053813696E+01    0.7691845894E+00    0.5072396755E+01    0.5239356518E+01    0.1395680010E+00    0    0
  111    1   11   11    0    0   -0.6628932476E+01    0.3796075583E+01    0.2510445023E+02    0.2624127769E+02    0.1349636167E+00    0    0
  -16    1    9    9    0    0   -0.1496993160E+02   -0.1132355213E+01    0.1690898895E+01    0.1510762119E+02    0.3452669771E-03    0    0
  211    1    9    9    0    0   -0.2410148239E+02   -0.2998819113E+01    0.4676821232E+01    0.2473391533E+02    0.1395683885E+00    0    0
</event>
<event>
   23 9999    1    0.9119999695E+02    0.7565275169E-02    0.1185000000E+00
   11   -1    0    0    0    0    0.0000000000E+00    0.0000000000E+00    0.8000000000E+02    0.8000000000E+02    0.5109988851E-03    0    0
  -11   -1    0    0    0    0    0.0000000000E+00    0.0000000000E+00   -0.8000000000E+02    0.8000000000E+02    0.5109988851E-03    0    0
  -24    2    1    2    0    0   -0.3288311958E+01   -0.6657638550E+00    0.1557502842E+02    0.7847508240E+02    0.7684074402E+02    0    0
   24    2    1    2    0    0    0.3998959064E+01    0.1397312760E+01   -0.1249634171E+02    0.7695641327E+02    0.7581680298E+02    0    0
   22    1    1    2    0    0   -0.7246680856E+00   -0.7325459123E+00   -0.3754097700E+01    0.3892944574E+01    0.0000000000E+00    0    0
   22    1    1    2    0    0    0.1402101759E-01    0.9970018873E-03    0.6754117012E+00    0.6755579114E+00    0.0000000000E+00    0    0
   15    2    3    3    0    0   -0.1842183495E+02    0.3395272064E+02    0.3578519344E+01    0.3883445358E+02    0.1777029991E+01    0    0
  -16    1    3    3    0    0    0.1513352394E+02   -0.3461848450E+02    0.1199650860E+02    0.3964062500E+02    0.0000000000E+00    0    0
   16    1    4    4    0    0   -0.1399200439E+02    0.3208269882E+02    0.7945926189E+01    0.3589168930E+02    0.0000000000E+00    0    0
  -15    2    4    4    0    0    0.1799096298E+02   -0.3068538475E+02   -0.2044226837E+02    0.4106472778E+02    0.1777029991E+01    0    0
   16    1    7    7    0    0   -0.1859052181E+00    0.2719346583E+00    0.2704487368E-01    0.3305157125E+00    0.8844011973E-05    0    0
  -24    2    7    7    0    0   -0.1823665428E+02    0.3368212128E+02    0.3551615238E+01    0.3850546646E+02    0.1730929732E+01    0    0
 -211    1   12   12    0    0   -0.5745477080E+00    0.1395790696E+01    0.9815268219E-01    0.1519029260E+01    0.1395679563E+00    0    0
 -211    1   12   12    0    0   -0.6280364513E+01    0.1122920227E+02    0.1223483324E+01    0.1292495060E+02    0.1395679563E+00    0    0
 -211    1   12   12    0    0   -0.3423341990E+01    0.6258785248E+01    0.8614295125E+00    0.7187016010E+01    0.1395679712E+00    0    0
  211    1   12   12    0    0   -0.2575840473E+01    0.4706522465E+01    0.6801479459E+00    0.5410026550E+01    0.1395679712E+00    0    0
  211    1   12   12    0    0   -0.1284162521E+01    0.2580598831E+01    0.2073517144E+00    0.2893274546E+01    0.1395679861E+00    0    0
  111    1   12   12    0    0   -0.4098397732E+01    0.7511221886E+01    0.4810501635E+00    0.8571168900E+01    0.1349639297E+00    0    0
  -16    1   10   10    0    0    0.5218100548E+00   -0.1303732634E+01   -0.6323328614E+00    0.1540081024E+01    0.3506202775E-03    0    0
20213    2   10   10    0    0    0.1746986198E+02   -0.2938286018E+02   -0.1981073952E+02    0.3952626038E+02    0.1145182610E+01    0    0
  111    1   20   20    0    0    0.8392911911E+01   -0.1370077705E+02   -0.8790011406E+01    0.1831487846E+02    0.1349643469E+00    0    0
  111    1   20   20    0    0    0.1973145485E+01   -0.3545042753E+01   -0.2527228832E+01    0.4781812668E+01    0.1349633485E+00    0    0
  211    1   20   20    0    0    0.7103805542E+01   -0.1213704205E+02   -0.8493501663E+01    0.1642957306E+02    0.1395679563E+00    0    0
</event>
<event>
   15 9999    1    0.9119999695E+02    0.7565275169E-02    0.1185000000E+00
   11   -1    0    0    0    0    0.0000000000E+00    0.0000000000E+00    0.8000000000E+02    0.8000000000E+02    0.5109988851E-03    0    0
  -11   -1    0    0    0    0    0.0000000000E+00    0.0000000000E+00   -0.8000000000E+02    0.8000000000E+02    0.5109988851E-03    0    0
  -24    2    1    2    0    0    0.1582300812E+00    0.2754568815E+01    0.6500855446E+01    0.8067216492E+02    0.8036245728E+02    0    0
   24    2    1    2    0    0   -0.1582300812E+00   -0.2754568815E+01   -0.6500601768E+01    0.7932758331E+02    0.7901261902E+02    0    0
   22    1    1    2    0    0    0.4181434088E-09   -0.2633461893E-08   -0.2540487330E-03    0.2540487330E-03    0.0000000000E+00    0    0
   15    2    3    3    0    0    0.1732030487E+02    0.3551572800E+02    0.1570843315E+02    0.4255904770E+02    0.1777029991E+01    0    0
  -16    1    3    3    0    0   -0.1716207504E+02   -0.3276115799E+02   -0.9207577705E+01    0.3811311722E+02    0.0000000000E+00    0    0
   16    1    4    4    0    0   -0.1660225296E+02    0.3442504501E+02   -0.5580257893E+01    0.3862457657E+02    0.0000000000E+00    0    0
  -15    2    4    4    0    0    0.1644402313E+02   -0.3717961502E+02   -0.9203436971E+00    0.4070300293E+02    0.1777029991E+01    0    0
   16    1    6    6    0    0    0.5303581238E+01    0.1010626602E+02    0.3928440809E+01    0.1207051086E+02    0.1726334885E-03    0    0
 -323    2    6    6    0    0    0.1201740456E+02    0.2541085815E+02    0.1178061008E+02    0.3049021149E+02    0.8604930043E+00    0    0
  111    1   11   11    0    0    0.6038601875E+01    0.1220786285E+02    0.5702230453E+01    0.1476584816E+02    0.1349640042E+00    0    0
 -321    1   11   11    0    0    0.5978803158E+01    0.1320299625E+02    0.6078380108E+01    0.1572436333E+02    0.4936670959E+00    0    0
  -16    1    9    9    0    0    0.6121224403E+01   -0.1555851269E+02   -0.8039470911E+00    0.1673866844E+02    0.4048614355E-03    0    0
  321    1    9    9    0    0    0.1032344532E+02   -0.2162256813E+02   -0.1164328754E+00    0.2396593857E+02    0.4936669767E+00    0    0
</event>
<event>
   17 9999    1    0.9119999695E+02    0.7565275169E-02    0.1185000000E+00
   11   -1    0    0    0    0    0.0000000000E+00    0.0000000000E+00    0.8000000000E+02    0.8000000000E+02    0.5109988851E-03    0    0
  -11   -1    0    0    0    0    0.0000000000E+00    0.0000000000E+00   -0.8000000000E+02    0.8000000000E+02    0.5109988851E-03    0    0
  -24    2    1    2    0    0   -0.4674014091E+01   -0.1000639153E+02    0.1667196274E+02    0.8079925537E+02    0.7828531647E+02    0    0
   24    2    1    2    0    0    0.4674014091E+01    0.1000639153E+02   -0.1667196274E+02    0.7920074463E+02    0.7663438416E+02    0    0
   15    2    3    3    0    0   -0.1116449738E+02    0.1376089954E+02    0.4122183990E+02    0.4490441513E+02    0.1777029991E+01    0    0
  -16    1    3    3    0    0    0.6505123138E+01   -0.2365734291E+02   -0.2523753738E+02    0.3519828796E+02    0.0000000000E+00    0    0
   22    1    3    3    0    0   -0.1463980880E-01   -0.1099479198E+00    0.6876608133E+00    0.6965488195E+00    0.0000000000E+00    0    0
   16    1    4    4    0    0    0.1473053169E+02   -0.3141925430E+02   -0.5938088894E+01    0.3520538330E+02    0.0000000000E+00    0    0
  -15    2    4    4    0    0   -0.1005651760E+02    0.4142564774E+02   -0.1073387432E+02    0.4399535751E+02    0.1777029991E+01    0    0
   16    1    5    5    0    0   -0.2545174360E+01    0.3134346008E+01    0.9019677162E+01    0.9882135391E+01    0.3343033313E-03    0    0
  -24    2    5    5    0    0   -0.8619736671E+01    0.1062706470E+02    0.3220368958E+02    0.3502394485E+02    0.1537666917E+01    0    0
  310    1   11   11    0    0   -0.4932033539E+01    0.5721740246E+01    0.1799823570E+02    0.1952556038E+02    0.4977199733E+00    0    0
 -211    1   11   11    0    0   -0.8724209666E+00    0.1569208145E+01    0.4343657017E+01    0.4702166080E+01    0.1395679861E+00    0    0
  310    1   11   11    0    0   -0.2815282822E+01    0.3336116076E+01    0.9861801147E+01    0.1079621983E+02    0.4977200329E+00    0    0
  -16    1    9    9    0    0   -0.3541977406E+01    0.1338223743E+02   -0.3082098961E+01    0.1418200302E+02    0.2114319796E-03    0    0
  -11    1    9    9    0    0   -0.3698131084E+01    0.1448394680E+02   -0.4486693859E+01    0.1560741234E+02    0.6224389072E-03    0    0
   12    1    9    9    0    0   -0.2816805363E+01    0.1356109428E+02   -0.3165503979E+01    0.1420767689E+02    0.8631674427E-04    0    0
</event>
<event>
   17 9999    1    0.9119999695E+02    0.7565275169E-02    0.1185000000E+00
   11   -1    0    0    0    0    0.0000000000E+00    0.0000000000E+00    0.8000000000E+02    0.8000000000E+02    0.5109988851E-03    0    0
  -11   -1    0    0    0    0    0.0000000000E+00    0.0000000000E+00   -0.8000000000E+02    0.8000000000E+02    0.5109988851E-03    0    0
  -24    2    1    2    0    0    0.2643755531E+02    0.3005404472E+02    0.4848410189E+00    0.6996147919E+02    0.5737755585E+02    0    0
   24    2    1    2    0    0   -0.2643755531E+02   -0.3005404472E+02   -0.4848410189E+00    0.9003852081E+02    0.8065054321E+02    0    0
   15    2    3    3    0    0    0.2512474632E+02    0.1052737832E+01    0.2229235077E+02    0.3365216064E+02    0.1777029991E+01    0    0
  -16    1    3    3    0    0    0.1312808394E+01    0.2900130844E+02   -0.2180751038E+02    0.3630932236E+02    0.0000000000E+00    0    0
   16    1    4    4    0    0   -0.1745231819E+02   -0.5495953751E+02    0.1464150524E+02    0.5949376297E+02    0.0000000000E+00    0    0
  -15    2    4    4    0    0   -0.8985236168E+01    0.2490549088E+02   -0.1512634563E+02    0.3054475594E+02    0.1777029991E+01    0    0
   16    1    5    5    0    0    0.6958750248E+01   -0.2656385899E+00    0.6079584599E+01    0.9244247437E+01    0.3452669771E-03    0    0
  -24    2    5    5    0    0    0.1816698456E+02    0.1318417788E+01    0.1621364403E+02    0.2440923691E+02    0.1072860837E+01    0    0
  111    1   10   10    0    0    0.3443706751E+01    0.3450863659E+00    0.3035868168E+01    0.4605747700E+01    0.1349638849E+00    0    0
  111    1   10   10    0    0    0.5930011749E+01    0.5916787982E+00    0.5035629272E+01    0.7803262234E+01    0.1349640787E+00    0    0
 -321    1   10   10    0    0    0.8793266296E+01    0.3816527426E+00    0.8142146111E+01    0.1200022602E+02    0.4936670065E+00    0    0
  -16    1    8    8    0    0   -0.2533101737E+00    0.9371489882E+00   -0.7154122591E+00    0.1205914140E+01    0.8631674427E-04    0    0
   24    2    8    8    0    0   -0.8732278824E+01    0.2396932220E+02   -0.1441152859E+02    0.2934004402E+02    0.1537825108E+01    0    0
  321    1   15   15    0    0   -0.4817633152E+01    0.1202820110E+02   -0.7799828053E+01    0.1513169575E+02    0.4936670065E+00    0    0
  130    1   15   15    0    0   -0.3914646387E+01    0.1194112206E+02   -0.6611701012E+01    0.1420834827E+02    0.4977199137E+00    0    0
</event>
<event>
   21 9999    1    0.9119999695E+02    0.7565275169E-02    0.1185000000E+00
   11   -1    0    0    0    0    0.0000000000E+00    0.0000000000E+00    0.8000000000E+02    0.8000000000E+02    0.5109988851E-03    0    0
  -11   -1    0    0    0    0    0.0000000000E+00    0.0000000000E+00   -0.8000000000E+02    0.8000000000E+02    0.5109988851E-03    0    0
  -24    2    1    2    0    0   -0.2248632050E+02    0.3225343704E+02    0.4614268780E+01    0.7922954559E+02    0.6863024139E+02    0    0
   24    2    1    2    0    0    0.2246879005E+02   -0.3226811600E+02   -0.4787407875E+01    0.8059474945E+02    0.7018915558E+02    0    0
   22    1    1    2    0    0    0.1762585901E-01    0.1464845240E-01    0.1704384089E+00    0.1719723791E+00    0.0000000000E+00    0    0
   22    1    1    2    0    0   -0.1003966318E-03    0.3304604979E-04    0.2872360405E-02    0.2874304308E-02    0.0000000000E+00    0    0
   22    1    1    2    0    0    0.1961076812E-07   -0.7015739811E-07   -0.5140200956E-03    0.5140200956E-03    0.0000000000E+00    0    0
   22    1    1    2    0    0   -0.1213546454E-06   -0.1357516481E-06    0.2185789781E-03    0.2185790654E-03    0.0000000000E+00    0    0
   22    1    1    2    0    0    0.4873751095E-05   -0.1151358333E-05    0.1241726422E-03    0.1242735889E-03    0.0000000000E+00    0    0
   15    2    3    3    0    0   -0.1634013939E+02    0.3989778519E+02    0.2964014816E+02    0.5235006714E+02    0.1777029991E+01    0    0
  -16    1    3    3    0    0   -0.6146182537E+01   -0.7644348621E+01   -0.2502587891E+02    0.2687947655E+02    0.0000000000E+00    0    0
   16    1    4    4    0    0   -0.1421589613E+01    0.2122062111E+02    0.2972099066E+01    0.2147484779E+02    0.0000000000E+00    0    0
  -15    2    4    4    0    0    0.2389038086E+02   -0.5348873901E+02   -0.7759507179E+01    0.5911990356E+02    0.1777029991E+01    0    0
   16    1   10   10    0    0   -0.2840835333E+01    0.7107452393E+01    0.5526332378E+01    0.9440687180E+01    0.4688199260E-03    0    0
  -24    2   10   10    0    0   -0.1349994564E+02    0.3279190445E+02    0.2411498070E+02    0.4291144180E+02    0.1517215610E+01    0    0
 -321    1   15   15    0    0   -0.8304535866E+01    0.1997717476E+02    0.1503245449E+02    0.2634902763E+02    0.4936669469E+00    0    0
  111    1   15   15    0    0   -0.2269235849E+01    0.5996998787E+01    0.4121635437E+01    0.7623616219E+01    0.1349641532E+00    0    0
  310    1   15   15    0    0   -0.2926174879E+01    0.6817729950E+01    0.4960891724E+01    0.8938797951E+01    0.4977200031E+00    0    0
  -16    1   13   13    0    0    0.1465643024E+02   -0.3242012024E+02   -0.4915854931E+01    0.3591713715E+02    0.1220703125E-03    0    0
  -11    1   13   13    0    0    0.2054596901E+01   -0.5836350441E+01   -0.6669109464E+00    0.6223272800E+01    0.5088297185E-03    0    0
   12    1   13   13    0    0    0.7180294037E+01   -0.1523437500E+02   -0.2177047014E+01    0.1698182297E+02    0.2006980358E-03    0    0
</event>
<event>
   18 9999    1    0.9119999695E+02    0.7565275169E-02    0.1185000000E+00
   11   -1    0    0    0    0    0.0000000000E+00    0.0000000000E+00    0.8000000000E+02    0.8000000000E+02    0.5109988851E-03    0    0
  -11   -1    0    0    0    0    0.0000000000E+00    0.0000000000E+00   -0.8000000000E+02    0.8000000000E+02    0.5109988851E-03    0    0
  -24    2    1    2    0    0    0.2923548698E+01    0.1860184097E+02    0.4665650845E+01    0.7368535614E+02    0.7108577728E+02    0    0
   24    2    1    2    0    0   -0.2923548698E+01   -0.1860184097E+02   -0.4665650845E+01    0.8631464386E+02    0.8410632324E+02    0    0
   15    2    3    3    0    0    0.2218065834E+02    0.2408981514E+02    0.2786903763E+02    0.4303651810E+02    0.1777029991E+01    0    0
  -16    1    3    3    0    0   -0.1925711060E+02   -0.5487973690E+01   -0.2320338631E+02    0.3064883804E+02    0.0000000000E+00    0    0
   16    1    4    4    0    0   -0.1669487381E+02    0.2115045357E+02    0.2341911316E+02    0.3570035553E+02    0.0000000000E+00    0    0
  -15    2    4    4    0    0    0.1377132511E+02   -0.3975229263E+02   -0.2808476448E+02    0.5061428833E+02    0.1777029991E+01    0    0
   16    1    5    5    0    0    0.4663242817E+01    0.4626849174E+01    0.5858642101E+01    0.8802116394E+01    0.3836000105E-03    0    0
  -24    2    5    5    0    0    0.1751828957E+02    0.1946391487E+02    0.2201149368E+02    0.3423609924E+02    0.1367499352E+01    0    0
 -321    1   10   10    0    0    0.6968070507E+01    0.7930416107E+01    0.9525717735E+01    0.1422773743E+02    0.4936670661E+00    0    0
 -211    1   10   10    0    0    0.5449438095E+01    0.5853790283E+01    0.6313384056E+01    0.1019026661E+02    0.1395681798E+00    0    0
  211    1   10   10    0    0    0.5100780964E+01    0.5679708004E+01    0.6172391415E+01    0.9818092346E+01    0.1395680606E+00    0    0
  -16    1    8    8    0    0    0.2472599745E+00   -0.6848695278E+00   -0.3932969868E+00    0.8275666833E+00    0.5514316144E-03    0    0
   24    2    8    8    0    0    0.1352460670E+02   -0.3906898880E+02   -0.2769257164E+02    0.4978871155E+02    0.1654220104E+01    0    0
  321    1   15   15    0    0    0.5289662838E+01   -0.1493505859E+02   -0.1003966331E+02    0.1876366425E+02    0.4936670363E+00    0    0
  111    1   15   15    0    0    0.4048631668E+01   -0.1201639557E+02   -0.8993046761E+01    0.1554600525E+02    0.1349639595E+00    0    0
  130    1   15   15    0    0    0.4186312675E+01   -0.1211753464E+02   -0.8659861565E+01    0.1547904301E+02    0.4977200031E+00    0    0
</event>
<event>
   18 9999    1    0.9119999695E+02    0.7565275169E-02    0.1185000000E+00
   11   -1    0    0    0    0    0.0000000000E+00    0.0000000000E+00    0.8000000000E+02    0.8000000000E+02    0.5109988851E-03    0    0
  -11   -1    0    0    0    0    0.0000000000E+00    0.0000000000E+00   -0.8000000000E+02    0.8000000000E+02    0.5109988851E-03    0    0
  -24    2    1    2    0    0   -0.9137468338E+01   -0.1755129051E+02    0.4697071075E+02    0.6541317749E+02    0.4100115204E+02    0    0
   24    2    1    2    0    0    0.9137468338E+01    0.1755129051E+02   -0.4697071075E+02    0.9458682251E+02    0.7967984772E+02    0    0
   15    2    3    3    0    0   -0.7288857937E+01   -0.1813641739E+02    0.5434901428E+02    0.5778434372E+02    0.1777029991E+01    0    0
  -16    1    3    3    0    0   -0.1848610759E+01    0.5851258636E+00   -0.7378301620E+01    0.7628831387E+01    0.0000000000E+00    0    0
   16    1    4    4    0    0   -0.1418271351E+02    0.3885751343E+02   -0.4744563675E+02    0.6294556427E+02    0.0000000000E+00    0    0
  -15    2    4    4    0    0    0.2332018280E+02   -0.2130622292E+02    0.4749237001E+00    0.3164126205E+02    0.1777029991E+01    0    0
   16    1    5    5    0    0   -0.1623036623E+01   -0.3517672777E+01    0.1146477222E+02    0.1210162258E+02    0.6042172317E-03    0    0
  -24    2    5    5    0    0   -0.5666107655E+01   -0.1461945724E+02    0.4288637924E+02    0.4568499374E+02    0.1429573059E+01    0    0
 -321    1   10   10    0    0   -0.1962622523E+01   -0.4938856125E+01    0.1470048237E+02    0.1563943958E+02    0.4936669767E+00    0    0
 -211    1   10   10    0    0   -0.2277175426E+01   -0.5144009113E+01    0.1622909546E+02    0.1717700195E+02    0.1395677179E+00    0    0
  211    1   10   10    0    0   -0.1426309586E+01   -0.4536591053E+01    0.1195679855E+02    0.1286854839E+02    0.1395680606E+00    0    0
  -16    1    8    8    0    0    0.9714025497E+01   -0.8872551918E+01   -0.5094049498E-01    0.1315625572E+02    0.4727763007E-03    0    0
   24    2    8    8    0    0    0.1360707569E+02   -0.1243451118E+02    0.5258828998E+00    0.1848625183E+02    0.1302082419E+01    0    0
  321    1   15   15    0    0    0.3714298248E+01   -0.3551760435E+01    0.2538656294E+00    0.5169058800E+01    0.4936670661E+00    0    0
  111    1   15   15    0    0    0.1121576548E+01   -0.1032610774E+01   -0.4770325869E-01    0.1531244516E+01    0.1349638999E+00    0    0
  130    1   15   15    0    0    0.8771200180E+01   -0.7850139141E+01    0.3197205067E+00    0.1178594875E+02    0.4977200329E+00    0    0
</event>
<event>
   17 9999    1    0.9119999695E+02    0.7565275169E-02    0.1185000000E+00
   11   -1    0    0    0    0    0.0000000000E+00    0.0000000000E+00    0.8000000000E+02    0.8000000000E+02    0.5109988851E-03    0    0
  -11   -1    0    0    0    0    0.0000000000E+00    0.0000000000E+00   -0.8000000000E+02    0.8000000000E+02    0.5109988851E-03    0    0
  -24    2    1    2    0    0   -0.1942486954E+02   -0.2194510651E+02    0.1029511213E+01    0.8423284149E+02    0.7896327209E+02    0    0
   24    2    1    2    0    0    0.1942486954E+02    0.2194510651E+02   -0.1029511213E+01    0.7576715851E+02    0.6986193085E+02    0    0
   15    2    3    3    0    0   -0.6819392204E+01    0.1829705429E+02    0.2799484062E+02    0.3417828751E+02    0.1777029991E+01    0    0
  -16    1    3    3    0    0   -0.1260547733E+02   -0.4024216080E+02   -0.2696533012E+02    0.5005455780E+02    0.0000000000E+00    0    0
   16    1    4    4    0    0   -0.1904100990E+02    0.5086818695E+01    0.2058619118E+02    0.2849959755E+02    0.0000000000E+00    0    0
  -15    2    4    4    0    0    0.3846588135E+02    0.1685828781E+02   -0.2161570168E+02    0.4726755905E+02    0.1777029991E+01    0    0
   16    1    5    5    0    0   -0.1456289053E+01    0.3360889912E+01    0.5738173485E+01    0.6807568550E+01    0.2862802648E-03    0    0
  -24    2    5    5    0    0   -0.5363371372E+01    0.1493688488E+02    0.2225776863E+02    0.2737206268E+02    0.1394722462E+01    0    0
  111    1   10   10    0    0   -0.1783889294E+01    0.6004477501E+01    0.9001374245E+01    0.1096717739E+02    0.1349640340E+00    0    0
  111    1   10   10    0    0   -0.6526198387E+00    0.1659420729E+01    0.2063303471E+01    0.2730389357E+01    0.1349635720E+00    0    0
 -321    1   10   10    0    0   -0.2926862478E+01    0.7272987843E+01    0.1119309235E+02    0.1367449856E+02    0.4936670661E+00    0    0
  -16    1    8    8    0    0    0.2008380651E+01    0.6259276867E+00   -0.8261873126E+00    0.2260080576E+01    0.1614838402E-03    0    0
  213    2    8    8    0    0    0.3645901489E+02    0.1623302460E+02   -0.2079036522E+02    0.4500933838E+02    0.9113990664E+00    0    0
  211    1   15   15    0    0    0.2410960579E+02    0.1057550430E+02   -0.1414472103E+02    0.2988656807E+02    0.1395680606E+00    0    0
  111    1   15   15    0    0    0.1234941292E+02    0.5657521725E+01   -0.6645647049E+01    0.1512277699E+02    0.1349641234E+00    0    0
</event>
<event>
   19 9999    1    0.9119999695E+02    0.7565275169E-02    0.1185000000E+00
   11   -1    0    0    0    0    0.0000000000E+00    0.0000000000E+00    0.8000000000E+02    0.8000000000E+02    0.5109988851E-03    0    0
  -11   -1    0    0    0    0    0.0000000000E+00    0.0000000000E+00   -0.8000000000E+02    0.8000000000E+02    0.5109988851E-03    0    0
  -24    2    1    2    0    0    0.5171539783E+01   -0.1366728592E+02   -0.1510156274E+01    0.8107177734E+02    0.7972962952E+02    0    0
   24    2    1    2    0    0   -0.5171539783E+01    0.1366728592E+02    0.1510156274E+01    0.7892822266E+02    0.7754897308E+02    0    0
   15    2    3    3    0    0   -0.1974029922E+02    0.2310098648E+02   -0.1595812988E+02    0.3436793137E+02    0.1777029991E+01    0    0
  -16    1    3    3    0    0    0.2491183853E+02   -0.3676827240E+02    0.1444797325E+02    0.4670384979E+02    0.0000000000E+00    0    0
   16    1    4    4    0    0   -0.3905392456E+02   -0.3588122129E+01    0.8746169090E+01    0.4018182755E+02    0.0000000000E+00    0    0
  -15    2    4    4    0    0    0.3388238525E+02    0.1725540733E+02   -0.7236012936E+01    0.3874639130E+02    0.1777029991E+01    0    0
   16    1    5    5    0    0   -0.1729860783E+01    0.2165829659E+01   -0.1283108234E+01    0.3054439783E+01    0.6103515625E-04    0    0
  -24    2    5    5    0    0   -0.1801121521E+02    0.2093606377E+02   -0.1467564869E+02    0.3131484222E+02    0.1588097095E+01    0    0
 -211    1   10   10    0    0   -0.2490133047E+01    0.2855073929E+01   -0.2198505402E+01    0.4382363796E+01    0.1395679712E+00    0    0
 -211    1   10   10    0    0   -0.4368678570E+01    0.5437908173E+01   -0.3850132465E+01    0.7968638420E+01    0.1395679712E+00    0    0
  211    1   10   10    0    0   -0.1389947772E+01    0.1778012872E+01   -0.1317611456E+01    0.2617033243E+01    0.1395679712E+00    0    0
  111    1   10   10    0    0   -0.5290365219E+01    0.5833971500E+01   -0.3787678003E+01    0.8740017891E+01    0.1349639744E+00    0    0
  111    1   10   10    0    0   -0.3580238819E+01    0.4100198746E+01   -0.2786598444E+01    0.6116623878E+01    0.1349639893E+00    0    0
  111    1   10   10    0    0   -0.8918510079E+00    0.9308990836E+00   -0.7351228595E+00    0.1490165114E+01    0.1349639893E+00    0    0
  -16    1    8    8    0    0    0.3083186150E+02    0.1593607330E+02   -0.6695692062E+01    0.3534677124E+02    0.1525878906E-03    0    0
  -11    1    8    8    0    0    0.1194031477E+01    0.6359542608E+00   -0.1546903513E-01    0.1352918506E+01    0.5142913433E-03    0    0
   12    1    8    8    0    0    0.1857827902E+01    0.6840601563E+00   -0.5251367092E+00    0.2048226357E+01    0.7475249731E-04    0    0
</event>
<event>
   23 9999    1    0.9119999695E+02    0.7565275169E-02    0.1185000000E+00
   11   -1    0    0    0    0    0.0000000000E+00    0.0000000000E+00    0.8000000000E+02    0.8000000000E+02    0.5109988851E-03    0    0
  -11   -1    0    0    0    0    0.0000000000E+00    0.0000000000E+00   -0.8000000000E+02    0.8000000000E+02    0.5109988851E-03    0    0
  -24    2    1    2    0    0    0.1219093037E+02    0.1328457928E+02   -0.4667272568E+01    0.7701409912E+02    0.7472810364E+02    0    0
   24    2    1    2    0    0   -0.1219092846E+02   -0.1328458118E+02    0.4739179134E+01    0.8291175079E+02    0.8078861237E+02    0    0
   22    1    1    2    0    0   -0.1611212838E-05    0.8572036450E-06   -0.7293831557E-01    0.7293831557E-01    0.0000000000E+00    0    0
   22    1    1    2    0    0   -0.8951680002E-06   -0.3692210271E-06    0.8286898956E-03    0.8286904776E-03    0.0000000000E+00    0    0
   22    1    1    2    0    0    0.1584187771E-05    0.1644066970E-05    0.1892278815E-03    0.1892416476E-03    0.0000000000E+00    0    0
   22    1    1    2    0    0   -0.4552817856E-07    0.4559568012E-07    0.1020586424E-03    0.1020586642E-03    0.0000000000E+00    0    0
   22    1    1    2    0    0   -0.1292243496E-05   -0.4382396810E-06   -0.8823603275E-04    0.8824658289E-04    0.0000000000E+00    0    0
   15    2    3    3    0    0    0.1795921135E+02   -0.8419932365E+01    0.2982049370E+02    0.3585872650E+02    0.1777029991E+01    0    0
  -16    1    3    3    0    0   -0.5768280506E+01    0.2170451164E+02   -0.3448776627E+02    0.4115537643E+02    0.0000000000E+00    0    0
   16    1    4    4    0    0    0.3296051025E+02    0.5881385207E+00    0.1201503277E+02    0.3508706665E+02    0.0000000000E+00    0    0
  -15    2    4    4    0    0   -0.4515143967E+02   -0.1387271976E+02   -0.7275853634E+01    0.4782468796E+02    0.1777029991E+01    0    0
   16    1   10   10    0    0    0.3982985258E+01   -0.1942085862E+01    0.6121232986E+01    0.7556808949E+01    0.1220703125E-03    0    0
   13    1   10   10    0    0    0.7172210217E+01   -0.2720118284E+01    0.1094285679E+02    0.1336401558E+02    0.1056590676E+00    0    0
  -14    1   10   10    0    0    0.6804723263E+01   -0.3758059502E+01    0.1275757694E+02    0.1493931198E+02    0.1220703125E-03    0    0
  -16    1   13   13    0    0   -0.1061467552E+02   -0.3595486641E+01   -0.2072406054E+01    0.1139709282E+02    0.3343033313E-03    0    0
   24    2   13   13    0    0   -0.3453853989E+02   -0.1027777863E+02   -0.5203733921E+01    0.3642947769E+02    0.1218345761E+01    0    0
  211    1   18   18    0    0   -0.3771998405E+01   -0.1056449294E+01   -0.6496607661E+00    0.3973109007E+01    0.1395681798E+00    0    0
  211    1   18   18    0    0   -0.1108403969E+02   -0.3242699146E+01   -0.1793349624E+01    0.1168788338E+02    0.1395679414E+00    0    0
 -211    1   18   18    0    0   -0.1276693344E+01   -0.4184314907E+00   -0.1775601804E+00    0.1362364769E+01    0.1395679712E+00    0    0
  111    1   18   18    0    0   -0.1488227272E+02   -0.4607521534E+01   -0.2173852205E+01    0.1573070717E+02    0.1349640787E+00    0    0
  111    1   18   18    0    0   -0.3523535013E+01   -0.9526768327E+00   -0.4093109965E+00    0.3675410509E+01    0.1349640936E+00    0    0
</event>
<event>
   16 9999    1    0.9119999695E+02    0.7565275169E-02    0.1185000000E+00
   11   -1    0    0    0    0    0.0000000000E+00    0.0000000000E+00    0.8000000000E+02    0.8000000000E+02    0.5109988851E-03    0    0
  -11   -1    0    0    0    0    0.0000000000E+00    0.0000000000E+00   -0.8000000000E+02    0.8000000000E+02    0.5109988851E-03    0    0
  -24    2    1    2    0    0   -0.2462193489E+01   -0.1333159924E+02    0.2298697472E+01    0.7906176758E+02    0.7785682678E+02    0    0
   24    2    1    2    0    0    0.2462193489E+01    0.1333159924E+02   -0.2298697472E+01    0.8093823242E+02    0.7976164246E+02    0    0
   15    2    3    3    0    0    0.3037468493E+00   -0.4550642014E+02   -0.5406125546E+01    0.4586186218E+02    0.1777029991E+01    0    0
  -16    1    3    3    0    0   -0.2765940428E+01    0.3217481995E+02    0.7704823017E+01    0.3319990540E+02    0.0000000000E+00    0    0
   16    1    4    4    0    0    0.2716031265E+02   -0.2076393127E+02    0.1231366539E+02    0.3633799362E+02    0.0000000000E+00    0    0
  -15    2    4    4    0    0   -0.2469811821E+02    0.3409553146E+02   -0.1461236286E+02    0.4460023880E+02    0.1777029991E+01    0    0
   16    1    5    5    0    0   -0.4509144276E-01   -0.1089184856E+02   -0.1043805718E+01    0.1094184303E+02    0.1614838402E-03    0    0
  -24    2    5    5    0    0    0.3488502502E+00   -0.3461636353E+02   -0.4362532616E+01    0.3492182541E+02    0.1444984555E+01    0    0
 -321    1   10   10    0    0   -0.1253024489E+00   -0.9948747635E+01   -0.1155600071E+01    0.1002857876E+02    0.4936670661E+00    0    0
 -211    1   10   10    0    0    0.4697338045E+00   -0.7420607090E+01   -0.8416172862E+00    0.7484240532E+01    0.1395682991E+00    0    0
  211    1   10   10    0    0    0.4418916535E-02   -0.1724700737E+02   -0.2365315199E+01    0.1740900612E+02    0.1395679563E+00    0    0
  -16    1    8    8    0    0   -0.1716805077E+02    0.2383830261E+02   -0.1098742294E+02    0.3136447144E+02    0.2441406250E-03    0    0
  -11    1    8    8    0    0   -0.4577136993E+01    0.6441674232E+01   -0.2383286953E+01    0.8253811836E+01    0.5179004511E-03    0    0
   12    1    8    8    0    0   -0.2953903913E+01    0.3816895723E+01   -0.1242228627E+01    0.4983710766E+01    0.0000000000E+00    0    0
</event>
<event>
   19 9999    1    0.9119999695E+02    0.7565275169E-02    0.1185000000E+00
   11   -1    0    0    0    0    0.0000000000E+00    0.0000000000E+00    0.8000000000E+02    0.8000000000E+02    0.5109988851E-03    0    0
  -11   -1    0    0    0    0    0.0000000000E+00    0.0000000000E+00   -0.8000000000E+02    0.8000000000E+02    0.5109988851E-03    0    0
  -24    2    1    2    0    0    0.3418625116E+01   -0.2012647867E+01   -0.4666111946E+01    0.7986809540E+02    0.7963291931E+02    0    0
   24    2    1    2    0    0   -0.3418638706E+01    0.2012649298E+01    0.4666261673E+01    0.8013175964E+02    0.7989734650E+02    0    0
   22    1    1    2    0    0    0.1368636367E-04   -0.1577996841E-05   -0.1496879704E-03    0.1503206440E-03    0.0000000000E+00    0    0
   15    2    3    3    0    0    0.3674353027E+02   -0.1084575081E+02   -0.1867225456E+02    0.4265592957E+02    0.1777029991E+01    0    0
  -16    1    3    3    0    0   -0.3332490540E+02    0.8833103180E+01    0.1400614262E+02    0.3721216202E+02    0.0000000000E+00    0    0
   16    1    4    4    0    0   -0.1333212852E+02   -0.1808886147E+02    0.3547393417E+02    0.4199229431E+02    0.0000000000E+00    0    0
  -15    2    4    4    0    0    0.9913489342E+01    0.2010151100E+02   -0.3080767441E+02    0.3813946152E+02    0.1777029991E+01    0    0
   16    1    6    6    0    0    0.4374030113E+01   -0.1664832354E+01   -0.2201277733E+01    0.5171985149E+01    0.6339287502E-03    0    0
  -24    2    6    6    0    0    0.3237094498E+02   -0.9181344986E+01   -0.1647171021E+02    0.3748562241E+02    0.1295890927E+01    0    0
 -211    1   11   11    0    0    0.1507019997E+02   -0.4615866661E+01   -0.7592693806E+01    0.1749530411E+02    0.1395686418E+00    0    0
  111    1   11   11    0    0    0.1480035973E+02   -0.4182165146E+01   -0.7597976685E+01    0.1715484238E+02    0.1349642277E+00    0    0
   22    1   11   11    0    0    0.2500383377E+01   -0.3833128512E+00   -0.1281039596E+01    0.2835473299E+01    0.2190048253E-03    0    0
  -16    1    9    9    0    0    0.2084083557E+01    0.4096390724E+01   -0.6963658333E+01    0.8343642235E+01    0.4727763007E-03    0    0
   24    2    9    9    0    0    0.7829795361E+01    0.1600591087E+02   -0.2384522629E+02    0.2979732132E+02    0.1338130116E+01    0    0
  211    1   16   16    0    0    0.6896814108E+00    0.1059028149E+01   -0.1637595415E+01    0.2073258162E+01    0.1395676434E+00    0    0
  310    1   16   16    0    0    0.3235725164E+01    0.6687219620E+01   -0.9407445908E+01    0.1199735737E+02    0.4977200329E+00    0    0
  111    1   16   16    0    0    0.3904389858E+01    0.8259665489E+01   -0.1280018806E+02    0.1572670841E+02    0.1349640638E+00    0    0
</event>
<event>
   18 9999    1    0.9119999695E+02    0.7565275169E-02    0.1185000000E+00
   11   -1    0    0    0    0    0.0000000000E+00    0.0000000000E+00    0.8000000000E+02    0.8000000000E+02    0.5109988851E-03    0    0
  -11   -1    0    0    0    0    0.0000000000E+00    0.0000000000E+00   -0.8000000000E+02    0.8000000000E+02    0.5109988851E-03    0    0
  -24    2    1    2    0    0    0.2182546043E+02   -0.3081948280E+02    0.7325463295E+01    0.7200777435E+02    0.6087089920E+02    0    0
   24    2    1    2    0    0   -0.2182546043E+02    0.3081948280E+02   -0.7325123787E+01    0.8799188232E+02    0.7913736725E+02    0    0
   22    1    1    2    0    0   -0.2455182724E-07    0.6775748318E-07   -0.3395226668E-03    0.3395226959E-03    0.0000000000E+00    0    0
   15    2    3    3    0    0   -0.2119871330E+02   -0.9149448395E+01    0.5492177486E+01    0.2379957390E+02    0.1777029991E+01    0    0
  -16    1    3    3    0    0    0.4302417374E+02   -0.2167003441E+02    0.1833285809E+01    0.4820820236E+02    0.0000000000E+00    0    0
   16    1    4    4    0    0   -0.8536905289E+01    0.2371459961E+02    0.3494208527E+02    0.4308375931E+02    0.0000000000E+00    0    0
  -15    2    4    4    0    0   -0.1328855515E+02    0.7104882717E+01   -0.4226720810E+02    0.4490812683E+02    0.1777029991E+01    0    0
   16    1    6    6    0    0   -0.8777958155E+00   -0.5751628876E+00    0.1456259191E+00    0.1059502125E+01    0.2114319796E-03    0    0
  -24    2    6    6    0    0   -0.2032175255E+02   -0.8574645042E+01    0.5346767426E+01    0.2274100876E+02    0.1437838435E+01    0    0
  111    1   11   11    0    0   -0.4744773865E+01   -0.1734830976E+01    0.1297172785E+01    0.5217603683E+01    0.1349640340E+00    0    0
  111    1   11   11    0    0   -0.1452056527E+01   -0.5353834629E+00    0.1302512437E+00    0.1558936834E+01    0.1349631846E+00    0    0
 -321    1   11   11    0    0   -0.1412492371E+02   -0.6304431915E+01    0.3919344187E+01    0.1596446991E+02    0.4936670363E+00    0    0
  -16    1    9    9    0    0   -0.3814744949E+01    0.2527230978E+01   -0.1428806305E+02    0.1500292969E+02    0.1930101134E-03    0    0
  323    2    9    9    0    0   -0.9474332809E+01    0.4577931404E+01   -0.2798080826E+02    0.2990696144E+02    0.8833684325E+00    0    0
  211    1   16   16    0    0   -0.3572654963E+01    0.1536063313E+01   -0.9703397751E+01    0.1045460415E+02    0.1395677924E+00    0    0
  310    1   16   16    0    0   -0.5901678085E+01    0.3041867971E+01   -0.1827741051E+02    0.1945235634E+02    0.4977200031E+00    0    0
</event>
<event>
   16 9999    1    0.9119999695E+02    0.7565275169E-02    0.1185000000E+00
   11   -1    0    0    0    0    0.0000000000E+00    0.0000000000E+00    0.8000000000E+02    0.8000000000E+02    0.5109988851E-03    0    0
  -11   -1    0    0    0    0    0.0000000000E+00    0.0000000000E+00   -0.8000000000E+02    0.8000000000E+02    0.5109988851E-03    0    0
  -24    2    1    2    0    0    0.2415359497E+02   -0.9502427101E+01   -0.6257244587E+01    0.7444847107E+02    0.6949625397E+02    0    0
   24    2    1    2    0    0   -0.2415359497E+02    0.9502427101E+01    0.6257244587E+01    0.8555152893E+02    0.8127864838E+02    0    0
   15    2    3    3    0    0    0.1255939674E+02   -0.3675342178E+02   -0.1767386246E+02    0.4270919800E+02    0.1777029991E+01    0    0
  -16    1    3    3    0    0    0.1159419823E+02    0.2725099564E+02    0.1141661835E+02    0.3173927116E+02    0.0000000000E+00    0    0
   16    1    4    4    0    0    0.7240483165E+00   -0.3367310715E+02    0.1108154678E+02    0.3545706177E+02    0.0000000000E+00    0    0
  -15    2    4    4    0    0   -0.2487764359E+02    0.4317553711E+02   -0.4824302197E+01    0.5009446716E+02    0.1777029991E+01    0    0
   16    1    5    5    0    0    0.2041952372E+01   -0.8138446808E+01   -0.3844216824E+01    0.9229403496E+01    0.4825252836E-04    0    0
   11    1    5    5    0    0    0.1047458935E+02   -0.2855714226E+02   -0.1380622482E+02    0.3340418243E+02    0.4939701757E-03    0    0
  -12    1    5    5    0    0    0.4334956408E-01   -0.5927909911E-01   -0.2411689796E-01    0.7729695737E-01    0.3298114098E-04    0    0
  -16    1    8    8    0    0   -0.4424980879E+00    0.9885511398E+00   -0.1874188036E+00    0.1099164963E+01    0.3300980898E-03    0    0
   24    2    8    8    0    0   -0.2443612480E+02    0.4218868637E+02   -0.4637073517E+01    0.4899727631E+02    0.1490395427E+01    0    0
  321    1   13   13    0    0   -0.1494778442E+02    0.2573332977E+02   -0.3076139688E+01    0.2992234612E+02    0.4936668873E+00    0    0
  111    1   13   13    0    0   -0.4901421070E+00    0.8708861470E+00   -0.7748322934E-01    0.1011385560E+01    0.1349630952E+00    0    0
  310    1   13   13    0    0   -0.8998195648E+01    0.1558446598E+02   -0.1483450055E+01    0.1806353951E+02    0.4977199733E+00    0    0
</event>
<event>
   22 9999    1    0.9119999695E+02    0.7565275169E-02    0.1185000000E+00
   11   -1    0    0    0    0    0.0000000000E+00    0.0000000000E+00    0.8000000000E+02    0.8000000000E+02    0.5109988851E-03    0    0
  -11   -1    0    0    0    0    0.0000000000E+00    0.0000000000E+00   -0.8000000000E+02    0.8000000000E+02    0.5109988851E-03    0    0
  -24    2    1    2    0    0    0.3572140455E+01    0.1500178051E+02   -0.1077617168E+02    0.8064048767E+02    0.7841522980E+02    0    0
   24    2    1    2    0    0   -0.3572875261E+01   -0.1500279427E+02    0.1077990532E+02    0.7935513306E+02    0.7709203339E+02    0    0
   22    1    1    2    0    0    0.7347911014E-03    0.1013268367E-02   -0.3962432500E-02    0.4155418370E-02    0.0000000000E+00    0    0
   22    1    1    2    0    0    0.5967704109E-08   -0.1703326924E-08    0.2286005911E-03    0.2286005911E-03    0.0000000000E+00    0    0
   15    2    3    3    0    0    0.1651075745E+02   -0.2416717529E+02    0.5194019318E+01    0.2977907562E+02    0.1777029991E+01    0    0
  -16    1    3    3    0    0   -0.1449945164E+02    0.4207258987E+02   -0.1661657143E+02    0.4750207901E+02    0.0000000000E+00    0    0
   22    1    3    3    0    0    0.1560835242E+01   -0.2903636217E+01    0.6463812590E+00    0.3359333277E+01    0.0000000000E+00    0    0
   16    1    4    4    0    0    0.3020132446E+02   -0.1293162346E+01   -0.1589345646E+02    0.3415251160E+02    0.0000000000E+00    0    0
  -15    2    4    4    0    0   -0.3377420044E+02   -0.1370963192E+02    0.2667336082E+02    0.4520261765E+02    0.1777029991E+01    0    0
   16    1    7    7    0    0    0.2397865534E+01   -0.3621025562E+01    0.1149329424E+01    0.4492499352E+01    0.4048614355E-03    0    0
  -24    2    7    7    0    0    0.1411356163E+02   -0.2054713058E+02    0.4044900894E+01    0.2528778648E+02    0.1316623569E+01    0    0
 -211    1   13   13    0    0    0.4710136890E+01   -0.7542094231E+01    0.1300894499E+01    0.8987792969E+01    0.1395682245E+00    0    0
 -211    1   13   13    0    0    0.4754870892E+01   -0.6707092762E+01    0.1203372478E+01    0.8310324669E+01    0.1395678520E+00    0    0
  211    1   13   13    0    0    0.3271552086E+01   -0.4565628529E+01    0.1221968651E+01    0.5749845028E+01    0.1395680159E+00    0    0
  111    1   13   13    0    0    0.1377002120E+01   -0.1732315063E+01    0.3186652362E+00    0.2239824772E+01    0.1349639595E+00    0    0
  -16    1   11   11    0    0   -0.2712911606E+01   -0.7217866778E+00    0.2035391808E+01    0.3467518568E+01    0.3529368259E-03    0    0
   24    2   11   11    0    0   -0.3106261826E+02   -0.1298838520E+02    0.2463902092E+02    0.4173688126E+02    0.1140771151E+01    0    0
  211    1   19   19    0    0   -0.5277934074E+01   -0.2186840534E+01    0.3871570349E+01    0.6902709007E+01    0.1395682991E+00    0    0
  111    1   19   19    0    0   -0.6779039383E+01   -0.2560360670E+01    0.5623486996E+01    0.9173475266E+01    0.1349640638E+00    0    0
   22    1   19   19    0    0   -0.1900564194E+02   -0.8241183281E+01    0.1514396191E+02    0.2566069221E+02    0.3356933594E-03    0    0
</event>
<event>
   22 9999    1    0.9119999695E+02    0.7565275169E-02    0.1185000000E+00
   11   -1    0    0    0    0    0.0000000000E+00    0.0000000000E+00    0.8000000000E+02    0.8000000000E+02    0.5109988851E-03    0    0
  -11   -1    0    0    0    0    0.0000000000E+00    0.0000000000E+00   -0.8000000000E+02    0.8000000000E+02    0.5109988851E-03    0    0
  -24    2    1    2    0    0    0.8972940445E+01    0.9559880257E+01    0.4025005817E+01    0.8151209259E+02    0.8034996033E+02    0    0
   24    2    1    2    0    0   -0.8972940445E+01   -0.9559880257E+01   -0.4025005817E+01    0.7848790741E+02    0.7728030396E+02    0    0
   15    2    3    3    0    0    0.1047813988E+02   -0.3472894287E+02    0.7416091442E+01    0.3706814194E+02    0.1777029991E+01    0    0
  -16    1    3    3    0    0   -0.1505199313E+01    0.4428882217E+02   -0.3391085625E+01    0.4444395065E+02    0.0000000000E+00    0    0
   16    1    4    4    0    0   -0.2474514008E+02   -0.3295507431E+02    0.1560855865E+02    0.4406797028E+02    0.0000000000E+00    0    0
  -15    2    4    4    0    0    0.1577219963E+02    0.2339519310E+02   -0.1963356400E+02    0.3441993713E+02    0.1777029991E+01    0    0
   16    1    5    5    0    0    0.1019096375E+00   -0.4231025279E+00    0.2154657617E-01    0.4357356727E+00    0.4315837214E-04    0    0
  -24    2    5    5    0    0    0.1037664223E+02   -0.3430720901E+02    0.7394837379E+01    0.3663386536E+02    0.1642339587E+01    0    0
 -211    1   10   10    0    0    0.1699778557E+01   -0.5370635033E+01    0.9872724414E+00    0.5720765114E+01    0.1395680010E+00    0    0
 -211    1   10   10    0    0    0.8900489211E+00   -0.3147172213E+01    0.5289922953E+00    0.3316050768E+01    0.1395680159E+00    0    0
 -211    1   10   10    0    0    0.1469594836E+01   -0.4984104633E+01    0.1066962123E+01    0.5306495667E+01    0.1395680010E+00    0    0
  211    1   10   10    0    0    0.1665884137E+01   -0.5771910191E+01    0.1284888744E+01    0.6144959927E+01    0.1395680010E+00    0    0
  211    1   10   10    0    0    0.1667601347E+01   -0.4449832916E+01    0.8840497136E+00    0.4835589886E+01    0.1395680457E+00    0    0
  111    1   10   10    0    0    0.2983734846E+01   -0.1058355331E+02    0.2642671824E+01    0.1131000423E+02    0.1349640638E+00    0    0
  -16    1    8    8    0    0    0.9154742241E+01    0.1287117195E+02   -0.1155889797E+02    0.1957254410E+02    0.4567452997E-03    0    0
   24    2    8    8    0    0    0.6618078232E+01    0.1052494240E+02   -0.8075439453E+01    0.1484874630E+02    0.8361825943E+00    0    0
  111    1   18   18    0    0    0.1566463828E+01    0.2688596964E+01   -0.2010631084E+01    0.3707184315E+01    0.1349639893E+00    0    0
  111    1   18   18    0    0    0.1722824097E+01    0.2400977373E+01   -0.2038744450E+01    0.3592702389E+01    0.1349642724E+00    0    0
  111    1   18   18    0    0    0.2012714624E+01    0.3049984217E+01   -0.2370677710E+01    0.4357952595E+01    0.1349640042E+00    0    0
  211    1   18   18    0    0    0.1316074729E+01    0.2385381937E+01   -0.1655384779E+01    0.3190905333E+01    0.1395679712E+00    0    0
</event>
<event>
   17 9999    1    0.9119999695E+02    0.7565275169E-02    0.1185000000E+00
   11   -1    0    0    0    0    0.0000000000E+00    0.0000000000E+00    0.8000000000E+02    0.8000000000E+02    0.5109988851E-03    0    0
  -11   -1    0    0    0    0    0.0000000000E+00    0.0000000000E+00   -0.8000000000E+02    0.8000000000E+02    0.5109988851E-03    0    0
  -24    2    1    2    0    0    0.1033227062E+02   -0.2249542952E+01    0.9752507210E+01    0.7992603302E+02    0.7862088013E+02    0    0
   24    2    1    2    0    0   -0.1033226871E+02    0.2249541283E+01   -0.9739405632E+01    0.8006086731E+02    0.7875957489E+02    0    0
   22    1    1    2    0    0   -0.7827559756E-07   -0.1032025736E-06   -0.1013378054E-01    0.1013378054E-01    0.0000000000E+00    0    0
   22    1    1    2    0    0   -0.1383432846E-05    0.1722885941E-05   -0.2967914566E-02    0.2967915265E-02    0.0000000000E+00    0    0
   15    2    3    3    0    0   -0.2243803406E+02   -0.2887763596E+02    0.8959178925E+01    0.3769360733E+02    0.1777029991E+01    0    0
  -16    1    3    3    0    0    0.3277030563E+02    0.2662809372E+02    0.7933279872E+00    0.4223242569E+02    0.0000000000E+00    0    0
   16    1    4    4    0    0   -0.4257059097E+02    0.1251349926E+02    0.1409885049E+01    0.4439403915E+02    0.0000000000E+00    0    0
  -15    2    4    4    0    0    0.3223832321E+02   -0.1026395798E+02   -0.1114929008E+02    0.3566682816E+02    0.1777029991E+01    0    0
   16    1    7    7    0    0   -0.6950313568E+01   -0.1000629997E+02    0.2448198557E+01    0.1242684937E+02    0.0000000000E+00    0    0
 -211    1    7    7    0    0   -0.1548860550E+02   -0.1887247467E+02    0.6511333466E+01    0.2526824379E+02    0.1395679563E+00    0    0
  -16    1   10   10    0    0    0.6753054619E+01   -0.2015274048E+01   -0.2704708099E+01    0.7548544407E+01    0.4567452997E-03    0    0
   24    2   10   10    0    0    0.2548653603E+02   -0.8249088287E+01   -0.8445020676E+01    0.2811968803E+02    0.1336997151E+01    0    0
  111    1   14   14    0    0    0.4505985737E+01   -0.1496367455E+01   -0.1184846997E+01    0.4895416260E+01    0.1349631846E+00    0    0
  111    1   14   14    0    0    0.6929397583E+01   -0.2023569822E+01   -0.2639098644E+01    0.7687291145E+01    0.1349637806E+00    0    0
  321    1   14   14    0    0    0.1405115318E+02   -0.4729151249E+01   -0.4621075630E+01    0.1553698254E+02    0.4936670065E+00    0    0
</event>
<event>
   17 9999    1    0.9119999695E+02    0.7565275169E-02    0.1185000000E+00
   11   -1    0    0    0    0    0.0000000000E+00    0.0000000000E+00    0.8000000000E+02    0.8000000000E+02    0.5109988851E-03    0    0
  -11   -1    0    0    0    0    0.0000000000E+00    0.0000000000E+00   -0.8000000000E+02    0.8000000000E+02    0.5109988851E-03    0    0
  -24    2    1    2    0    0   -0.6258346558E+01   -0.5067959428E+00    0.1857328987E+02    0.7641024780E+02    0.7385211945E+02    0    0
   24    2    1    2    0    0    0.6253073215E+01    0.4800962508E+00   -0.2094652748E+02    0.8121635437E+02    0.7821769714E+02    0    0
   22    1    1    2    0    0    0.5273676012E-02    0.2669969946E-01    0.2373238087E+01    0.2373394012E+01    0.0000000000E+00    0    0
   15    2    3    3    0    0    0.1962044525E+02   -0.2769221687E+02    0.1887677574E+02    0.3887558746E+02    0.1777029991E+01    0    0
  -16    1    3    3    0    0   -0.2587879181E+02    0.2718542099E+02   -0.3034865260E+00    0.3753466415E+02    0.0000000000E+00    0    0
   16    1    4    4    0    0   -0.2107911491E+02   -0.2897146034E+02   -0.1989865303E+02    0.4098330307E+02    0.0000000000E+00    0    0
  -15    2    4    4    0    0    0.2733218956E+02    0.2945155525E+02   -0.1047873497E+01    0.4023305130E+02    0.1777029991E+01    0    0
   16    1    6    6    0    0    0.1203838921E+02   -0.1594224072E+02    0.1052301216E+02    0.2257900810E+02    0.3452669771E-03    0    0
 -321    1    6    6    0    0    0.7582828999E+01   -0.1175106716E+02    0.8354507446E+01    0.1629811096E+02    0.4936670363E+00    0    0
  -16    1    9    9    0    0    0.4410316646E+00    0.2785110474E+00   -0.9581612796E-01    0.5303379297E+00    0.5187988281E-03    0    0
   24    2    9    9    0    0    0.2689223099E+02    0.2917420197E+02   -0.9520986080E+00    0.3970429611E+02    0.1094747782E+01    0    0
  211    1   13   13    0    0    0.3209068298E+01    0.3444717646E+01   -0.1255413294E+00    0.4711627960E+01    0.1395680755E+00    0    0
  211    1   13   13    0    0    0.9153186798E+01    0.9504363060E+01   -0.2558270991E+00    0.1319843483E+02    0.1395681202E+00    0    0
 -211    1   13   13    0    0    0.1307106400E+02    0.1465313721E+02   -0.5906422138E+00    0.1964524078E+02    0.1395680606E+00    0    0
  111    1   13   13    0    0    0.1458912373E+01    0.1571983695E+01    0.1991206966E-01    0.2148992777E+01    0.1349640340E+00    0    0
</event>
<event>
   12 9999    1    0.9119999695E+02    0.7565275169E-02    0.1185000000E+00
   11   -1    0    0    0    0    0.0000000000E+00    0.0000000000E+00    0.8000000000E+02    0.8000000000E+02    0.5109988851E-03    0    0
  -11   -1    0    0    0    0    0.0000000000E+00    0.0000000000E+00   -0.8000000000E+02    0.8000000000E+02    0.5109988851E-03    0    0
  -24    2    1    2    0    0    0.2332953453E+02    0.8692958832E+01    0.2574939537E+02    0.7084629822E+02    0.6112553787E+02    0    0
   24    2    1    2    0    0   -0.2332953453E+02   -0.8692958832E+01   -0.2574939537E+02    0.8915370178E+02    0.8164261627E+02    0    0
   15    2    3    3    0    0    0.1588886833E+02   -0.1609353662E+01    0.4499797440E+02    0.4778097534E+02    0.1777029991E+01    0    0
  -16    1    3    3    0    0    0.7440666676E+01    0.1030231285E+02   -0.1924857903E+02    0.2306531906E+02    0.0000000000E+00    0    0
   16    1    4    4    0    0    0.2564372253E+02   -0.1466069031E+02   -0.2664138412E+02    0.3977812958E+02    0.0000000000E+00    0    0
  -15    2    4    4    0    0   -0.4897325897E+02    0.5967730999E+01    0.8919889331E+00    0.4937557220E+02    0.1777029991E+01    0    0
   16    1    5    5    0    0    0.1166259575E+02   -0.1161027312E+01    0.3520433044E+02    0.3710403061E+02    0.3558930475E-03    0    0
 -211    1    5    5    0    0    0.4226897717E+01   -0.4483897984E+00    0.9795416832E+01    0.1067882919E+02    0.1395681947E+00    0    0
  -16    1    8    8    0    0   -0.3968682051E+01    0.3431041241E+00   -0.3901618421E+00    0.4002547264E+01    0.1726334885E-03    0    0
  211    1    8    8    0    0   -0.4500650406E+02    0.5624861717E+01    0.1282185912E+01    0.4537497330E+02    0.1395680606E+00    0    0
</event>
<event>
   19 9999    1    0.9119999695E+02    0.7565275169E-02    0.1185000000E+00
   11   -1    0    0    0    0    0.0000000000E+00    0.0000000000E+00    0.8000000000E+02    0.8000000000E+02    0.5109988851E-03    0    0
  -11   -1    0    0    0    0    0.0000000000E+00    0.0000000000E+00   -0.8000000000E+02    0.8000000000E+02    0.5109988851E-03    0    0
  -24    2    1    2    0    0   -0.6023401260E+01    0.1840891647E+02    0.1501304150E+01    0.7960186768E+02    0.7719477844E+02    0    0
   24    2    1    2    0    0    0.6023401260E+01   -0.1840891647E+02   -0.1501304150E+01    0.8039813232E+02    0.7801561737E+02    0    0
   15    2    3    3    0    0    0.1430186176E+02   -0.3921065331E+01    0.3284399033E+02    0.3608051300E+02    0.1777029991E+01    0    0
  -16    1    3    3    0    0   -0.2032526398E+02    0.2232998085E+02   -0.3134268379E+02    0.4352135468E+02    0.0000000000E+00    0    0
   16    1    4    4    0    0    0.3144752121E+02   -0.3475328445E+02   -0.1195058537E+02    0.4836893463E+02    0.0000000000E+00    0    0
  -15    2    4    4    0    0   -0.2542411995E+02    0.1634436798E+02    0.1044928169E+02    0.3202919769E+02    0.1777029991E+01    0    0
   16    1    5    5    0    0    0.2872978926E+01   -0.3834147155E+00    0.6375635624E+01    0.7003552437E+01    0.1977765060E-03    0    0
  -24    2    5    5    0    0    0.1142944622E+02   -0.3537804842E+01    0.2646964455E+02    0.2907838058E+02    0.1327328563E+01    0    0
  111    1   10   10    0    0    0.1876712561E+01   -0.8176651597E+00    0.4640520096E+01    0.5073782444E+01    0.1349640340E+00    0    0
  111    1   10   10    0    0    0.2831117809E+00   -0.1173034236E+00    0.9463316798E+00    0.1003828287E+01    0.1349641085E+00    0    0
 -321    1   10   10    0    0    0.9269620895E+01   -0.2602836132E+01    0.2088279152E+02    0.2300076866E+02    0.4936669767E+00    0    0
  -16    1    8    8    0    0   -0.9807399750E+01    0.6139950275E+01    0.4046654701E+01    0.1225803757E+02    0.5088297185E-03    0    0
   24    2    8    8    0    0   -0.1561772060E+02    0.1020506001E+02    0.6403038025E+01    0.1977242088E+02    0.1375961781E+01    0    0
  111    1   15   15    0    0   -0.3569498062E+01    0.2538287878E+01    0.1349462509E+01    0.4585137367E+01    0.1349635124E+00    0    0
  111    1   15   15    0    0   -0.1981560707E+01    0.1323072076E+01    0.1063977838E+01    0.2612923145E+01    0.1349636912E+00    0    0
  111    1   15   15    0    0   -0.2287312746E+01    0.1558128834E+01    0.6298699379E+00    0.2841569424E+01    0.1349641532E+00    0    0
  211    1   15   15    0    0   -0.7779349804E+01    0.4785571098E+01    0.3359727621E+01    0.9732790947E+01    0.1395678818E+00    0    0
</event>
<event>
   20 9999    1    0.9119999695E+02    0.7565275169E-02    0.1185000000E+00
   11   -1    0    0    0    0    0.0000000000E+00    0.0000000000E+00    0.8000000000E+02    0.8000000000E+02    0.5109988851E-03    0    0
  -11   -1    0    0    0    0    0.0000000000E+00    0.0000000000E+00   -0.8000000000E+02    0.8000000000E+02    0.5109988851E-03    0    0
  -24    2    1    2    0    0   -0.1755047226E+02   -0.1207912064E+02    0.2800001144E+02    0.8843428802E+02    0.8113383484E+02    0    0
   24    2    1    2    0    0    0.1755047226E+02    0.1207912064E+02   -0.2799851036E+02    0.7156397247E+02    0.6231822586E+02    0    0
   22    1    1    2    0    0    0.5490207844E-08    0.1671010885E-07   -0.1618352951E-02    0.1618352951E-02    0.0000000000E+00    0    0
   22    1    1    2    0    0    0.4777292162E-07   -0.2858384107E-07    0.1176924416E-03    0.1176924488E-03    0.0000000000E+00    0    0
   15    2    3    3    0    0   -0.2445096397E+02    0.2977590942E+02    0.2488353729E+02    0.4589992142E+02    0.1777029991E+01    0    0
  -16    1    3    3    0    0    0.6900492191E+01   -0.4185503006E+02    0.3116473913E+01    0.4253437042E+02    0.0000000000E+00    0    0
   16    1    4    4    0    0   -0.1734118080E+02    0.3429031134E+01   -0.3074823761E+02    0.3546729279E+02    0.0000000000E+00    0    0
  -15    2    4    4    0    0    0.3489165115E+02    0.8650089264E+01    0.2749727249E+01    0.3609667969E+02    0.1777029991E+01    0    0
   16    1    7    7    0    0   -0.1974960899E+02    0.2425481606E+02    0.2038701630E+02    0.3733595657E+02    0.7475249731E-04    0    0
 -213    2    7    7    0    0   -0.4702318192E+01    0.5522263050E+01    0.4497498989E+01    0.8565769196E+01    0.7332954407E+00    0    0
 -211    1   12   12    0    0   -0.6013388038E+00    0.5023774505E+00    0.3519968987E+00    0.8702715635E+00    0.1395684630E+00    0    0
  111    1   12   12    0    0   -0.4100980759E+01    0.5019887447E+01    0.4145503998E+01    0.7695500851E+01    0.1349641383E+00    0    0
  -16    1   10   10    0    0    0.1714857864E+02    0.4749372959E+01    0.8179913759E+00    0.1781290054E+02    0.2990099892E-03    0    0
   24    2   10   10    0    0    0.1774444580E+02    0.3901056767E+01    0.1931843996E+01    0.1828520012E+02    0.7299946547E+00    0    0
  111    1   16   16    0    0    0.5496090412E+01    0.1316103339E+01    0.6849459410E+00    0.5694427490E+01    0.1349641681E+00    0    0
  111    1   16   16    0    0    0.3285056591E+01    0.7762618065E+00    0.2998628914E+00    0.3391505957E+01    0.1349639297E+00    0    0
  111    1   16   16    0    0    0.3426042318E+01    0.7160059810E+00    0.2700341344E+00    0.3513056278E+01    0.1349640042E+00    0    0
  211    1   16   16    0    0    0.5537255287E+01    0.1092685223E+01    0.6770009398E+00    0.5686208725E+01    0.1395679712E+00    0    0
</event>
<event>
   25 9999    1    0.9119999695E+02    0.7565275169E-02    0.1185000000E+00
   11   -1    0    0    0    0    0.0000000000E+00    0.0000000000E+00    0.8000000000E+02    0.8000000000E+02    0.5109988851E-03    0    0
  -11   -1    0    0    0    0    0.0000000000E+00    0.0000000000E+00   -0.8000000000E+02    0.8000000000E+02    0.5109988851E-03    0    0
  -24    2    1    2    0    0   -0.2248767376E+01    0.1105920410E+02    0.4388638973E+01    0.7885412598E+02    0.7791886902E+02    0    0
   24    2    1    2    0    0    0.2594827414E+01   -0.1107659435E+02   -0.4958739758E+01    0.7999425507E+02    0.7902574158E+02    0    0
   22    1    1    2    0    0   -0.3432793021E+00    0.1800067350E-01    0.5892489552E+00    0.6821869016E+00    0.0000000000E+00    0    0
   22    1    1    2    0    0   -0.9861946455E-04    0.8683297347E-04   -0.2337574661E+00    0.2337574959E+00    0.0000000000E+00    0    0
   22    1    1    2    0    0   -0.2565772505E-02   -0.7475189050E-03    0.1497484148E+00    0.1497722566E+00    0.0000000000E+00    0    0
   22    1    1    2    0    0    0.1318024516E-06    0.7348426152E-06    0.7536085695E-01    0.7536085695E-01    0.0000000000E+00    0    0
   22    1    1    2    0    0   -0.3330896143E-03    0.1972756145E-03   -0.9475347586E-02    0.9483252652E-02    0.0000000000E+00    0    0
   22    1    1    2    0    0    0.2167906787E-03   -0.1483547676E-03   -0.1024935860E-02    0.1058064634E-02    0.0000000000E+00    0    0
   15    2    3    3    0    0    0.2502889252E+02    0.3115690804E+02    0.1593127441E+02    0.4305997849E+02    0.1777029991E+01    0    0
  -16    1    3    3    0    0   -0.2727766037E+02   -0.2009770393E+02   -0.1154263496E+02    0.3579414368E+02    0.0000000000E+00    0    0
   16    1    4    4    0    0    0.1587415886E+02    0.1917687225E+02   -0.2964586639E+02    0.3871199799E+02    0.0000000000E+00    0    0
  -15    2    4    4    0    0   -0.1327933121E+02   -0.3025346756E+02    0.2468712807E+02    0.4128226089E+02    0.1777029991E+01    0    0
   16    1   11   11    0    0    0.1690137863E+02    0.2136294365E+02    0.1138169861E+02    0.2952244759E+02    0.1220703125E-03    0    0
 -213    2   11   11    0    0    0.8128499985E+01    0.9795190811E+01    0.4550202370E+01    0.1353922367E+02    0.7667909861E+00    0    0
 -211    1   16   16    0    0    0.7176750183E+01    0.8476778984E+01    0.4163648129E+01    0.1186241817E+02    0.1395680606E+00    0    0
  111    1   16   16    0    0    0.9517501593E+00    0.1318412423E+01    0.3865546286E+00    0.1676806331E+01    0.1349641085E+00    0    0
  -16    1   14   14    0    0   -0.5314539671E+00   -0.1013979912E+01    0.8848150373E+00    0.1446892023E+01    0.4988363944E-03    0    0
   24    2   14   14    0    0   -0.1274839973E+02   -0.2924067688E+02    0.2380328369E+02    0.3983699417E+02    0.1688411474E+01    0    0
  211    1   20   20    0    0   -0.2051029682E+01   -0.4853581905E+01    0.3550313473E+01    0.6355170250E+01    0.1395674497E+00    0    0
  211    1   20   20    0    0   -0.1166956663E+01   -0.2685414076E+01    0.2242194414E+01    0.3690548897E+01    0.1395681053E+00    0    0
 -211    1   20   20    0    0   -0.1134358168E+01   -0.2903023243E+01    0.2474974394E+01    0.3982372284E+01    0.1395680010E+00    0    0
  111    1   20   20    0    0   -0.5630590916E+01   -0.1271389008E+02    0.9974622726E+01    0.1711309052E+02    0.1349637359E+00    0    0
  111    1   20   20    0    0   -0.2765465260E+01   -0.6084768772E+01    0.5561179638E+01    0.8695811272E+01    0.1349640638E+00    0    0
</event>
<event>
   22 9999    1    0.9119999695E+02    0.7565275169E-02    0.1185000000E+00
   11   -1    0    0    0    0    0.0000000000E+00    0.0000000000E+00    0.8000000000E+02    0.8000000000E+02    0.5109988851E-03    0    0
  -11   -1    0    0    0    0    0.0000000000E+00    0.0000000000E+00   -0.8000000000E+02    0.8000000000E+02    0.5109988851E-03    0    0
  -24    2    1    2    0    0    0.4974646568E+01   -0.2616650581E+02    0.7438915253E+01    0.7632883453E+02    0.7114295959E+02    0    0
   24    2    1    2    0    0   -0.4974632740E+01    0.2616655731E+02   -0.7439069748E+01    0.8367100525E+02    0.7896873474E+02    0    0
   22    1    1    2    0    0   -0.1350135426E-04   -0.5054305075E-04    0.1543335820E-03    0.1629593171E-03    0.0000000000E+00    0    0
   15    2    3    3    0    0   -0.6937752962E+00    0.1648805428E+02   -0.1946493912E+02    0.2558083153E+02    0.1777029991E+01    0    0
  -16    1    3    3    0    0    0.5668421745E+01   -0.4265456009E+02    0.2690385437E+02    0.5074800491E+02    0.0000000000E+00    0    0
   16    1    4    4    0    0   -0.2331292725E+02    0.4712009048E+02    0.5607067585E+01    0.5286997604E+02    0.0000000000E+00    0    0
  -15    2    4    4    0    0    0.1833829308E+02   -0.2095353127E+02   -0.1304613781E+02    0.3080102348E+02    0.1777029991E+01    0    0
   16    1    6    6    0    0   -0.3380667418E-01    0.4398286939E+00   -0.4479568303E+00    0.6286950707E+00    0.2157918607E-04    0    0
  -24    2    6    6    0    0   -0.6599958539E+00    0.1604887390E+02   -0.1901774788E+02    0.2495314217E+02    0.1727033138E+01    0    0
 -211    1   11   11    0    0   -0.1694033891E+00    0.1903601527E+01   -0.2310950994E+01    0.3002061129E+01    0.1395679861E+00    0    0
 -211    1   11   11    0    0   -0.1422497481E+00    0.7029323578E+00   -0.8206242323E+00    0.1098750353E+01    0.1395679414E+00    0    0
 -211    1   11   11    0    0   -0.1012226101E-01    0.3398577213E+01   -0.4487984657E+01    0.5631333351E+01    0.1395680904E+00    0    0
  211    1   11   11    0    0   -0.4404337704E-01    0.3951185644E+00   -0.3872409761E+00    0.5722702742E+00    0.1395679712E+00    0    0
  211    1   11   11    0    0   -0.1723508164E-01    0.5249238014E+01   -0.5939821243E+01    0.7928161621E+01    0.1395679414E+00    0    0
  111    1   11   11    0    0   -0.2769420445E+00    0.4399405479E+01   -0.5071125984E+01    0.6720565319E+01    0.1349640042E+00    0    0
  -16    1    9    9    0    0    0.5706683993E+00   -0.8181784749E+00   -0.5368482471E+00    0.1132821560E+01    0.4564903211E-03    0    0
   24    2    9    9    0    0    0.1776834679E+02   -0.2013617897E+02   -0.1250980282E+02    0.2966941452E+02    0.1612189293E+01    0    0
  130    1   19   19    0    0    0.5633929729E+01   -0.6065321445E+01   -0.3475498199E+01    0.8992002487E+01    0.4977200627E+00    0    0
  211    1   19   19    0    0    0.7162835598E+01   -0.8372880936E+01   -0.5480394840E+01    0.1230713463E+02    0.1395679563E+00    0    0
  310    1   19   19    0    0    0.4971581459E+01   -0.5697975159E+01   -0.3553908825E+01    0.8370277405E+01    0.4977200627E+00    0    0
</event>
<event>
   18 9999    1    0.9119999695E+02    0.7565275169E-02    0.1185000000E+00
   11   -1    0    0    0    0    0.0000000000E+00    0.0000000000E+00    0.8000000000E+02    0.8000000000E+02    0.5109988851E-03    0    0
  -11   -1    0    0    0    0    0.0000000000E+00    0.0000000000E+00   -0.8000000000E+02    0.8000000000E+02    0.5109988851E-03    0    0
  -24    2    1    2    0    0   -0.6002751350E+01   -0.6226372123E+00    0.2229326057E+02    0.7739562988E+02    0.7386930084E+02    0    0
   24    2    1    2    0    0    0.6002751350E+01    0.6226372123E+00   -0.2229326057E+02    0.8260437012E+02    0.7930997467E+02    0    0
   15    2    3    3    0    0   -0.2832179642E+02   -0.1928340530E+02    0.3180944061E+02    0.4678645325E+02    0.1777029991E+01    0    0
  -16    1    3    3    0    0    0.2231904602E+02    0.1866076851E+02   -0.9516179085E+01    0.3060917854E+02    0.0000000000E+00    0    0
   16    1    4    4    0    0   -0.3303419876E+02   -0.1282030773E+02   -0.2114353943E+02    0.4126339722E+02    0.0000000000E+00    0    0
  -15    2    4    4    0    0    0.3903694916E+02    0.1344294453E+02   -0.1149720907E+01    0.4134097290E+02    0.1777029991E+01    0    0
   16    1    5    5    0    0   -0.8621607780E+01   -0.5566772938E+01    0.9455363274E+01    0.1395438862E+02    0.4799853486E-03    0    0
  -24    2    5    5    0    0   -0.1970130348E+02   -0.1371739101E+02    0.2235532761E+02    0.3283390427E+02    0.1412952662E+01    0    0
 -211    1   10   10    0    0   -0.9114354849E+00   -0.5306320786E+00    0.9616420865E+00    0.1434057117E+01    0.1395679116E+00    0    0
 -211    1   10   10    0    0   -0.2384727240E+01   -0.1452887654E+01    0.2920674562E+01    0.4043219566E+01    0.1395680904E+00    0    0
  211    1   10   10    0    0   -0.2090131998E+01   -0.1516475439E+01    0.2398792744E+01    0.3527326822E+01    0.1395680159E+00    0    0
  111    1   10   10    0    0   -0.5191941261E+01   -0.3728013992E+01    0.5682833195E+01    0.8553779602E+01    0.1349640787E+00    0    0
  111    1   10   10    0    0   -0.9123068810E+01   -0.6489383221E+01    0.1039138794E+02    0.1527552414E+02    0.1349641234E+00    0    0
  -16    1    8    8    0    0    0.2335608864E+02    0.7249111176E+01   -0.6558461189E+00    0.2446398544E+02    0.1141863249E-03    0    0
  -11    1    8    8    0    0    0.1497368145E+02    0.6001493454E+01   -0.5585449934E+00    0.1614128304E+02    0.5051558255E-03    0    0
   12    1    8    8    0    0    0.7087173462E+00    0.1928687543E+00    0.6462500244E-01    0.7373296618E+00    0.5285799489E-04    0    0
</event>
<event>
   19 9999    1    0.9119999695E+02    0.7565275169E-02    0.1185000000E+00
   11   -1    0    0    0    0    0.0000000000E+00    0.0000000000E+00    0.8000000000E+02    0.8000000000E+02    0.5109988851E-03    0    0
  -11   -1    0    0    0    0    0.0000000000E+00    0.0000000000E+00   -0.8000000000E+02    0.8000000000E+02    0.5109988851E-03    0    0
  -24    2    1    2    0    0    0.1250452518E+01   -0.1084486395E+00    0.4432840347E+01    0.7980257416E+02    0.7966947937E+02    0    0
   24    2    1    2    0    0   -0.1248285055E+01    0.1094650403E+00   -0.4433857441E+01    0.8019480133E+02    0.8006233215E+02    0    0
   22    1    1    2    0    0   -0.2162285149E-02   -0.1010440639E-02    0.1038105926E-02    0.2602716209E-02    0.0000000000E+00    0    0
   15    2    3    3    0    0   -0.2535817528E+02    0.1682614136E+02    0.2723847389E+02    0.4088090515E+02    0.1777029991E+01    0    0
  -16    1    3    3    0    0    0.2660862732E+02   -0.1693459129E+02   -0.2280563354E+02    0.3892166901E+02    0.0000000000E+00    0    0
   16    1    4    4    0    0   -0.2597698975E+02    0.1278070450E+02    0.2602426147E+02    0.3892829895E+02    0.0000000000E+00    0    0
  -15    2    4    4    0    0    0.2472870445E+02   -0.1267123985E+02   -0.3045811844E+02    0.4126649857E+02    0.1777029991E+01    0    0
   16    1    6    6    0    0   -0.3583415270E+01    0.2534847736E+01    0.3743316889E+01    0.5768772602E+01    0.3200710635E-03    0    0
  -24    2    6    6    0    0   -0.2177575874E+02    0.1429195690E+02    0.2349623108E+02    0.3511374283E+02    0.1567925811E+01    0    0
  221    1   11   11    0    0   -0.1617240524E+02    0.1083819199E+02    0.1773395920E+02    0.2634022903E+02    0.5487999320E+00    0    0
 -211    1   11   11    0    0   -0.1147466421E+01    0.9920866489E+00    0.1296715617E+01    0.2000466347E+01    0.1395681351E+00    0    0
  111    1   11   11    0    0   -0.4455886364E+01    0.2461678028E+01    0.4465555191E+01    0.6773048401E+01    0.1349638700E+00    0    0
  -16    1    9    9    0    0    0.2180704594E+01   -0.1232546687E+01   -0.2976948023E+01    0.3890612125E+01    0.2830083831E-03    0    0
   24    2    9    9    0    0    0.2254897499E+02   -0.1143919182E+02   -0.2748237038E+02    0.3737751389E+02    0.1576840043E+01    0    0
  221    1   16   16    0    0    0.6909471512E+01   -0.3241284609E+01   -0.8373695374E+01    0.1134313297E+02    0.5487999320E+00    0    0
  211    1   16   16    0    0    0.1003813362E+02   -0.5499601841E+01   -0.1290825558E+02    0.1725260162E+02    0.1395678371E+00    0    0
  111    1   16   16    0    0    0.5601366997E+01   -0.2698304415E+01   -0.6200417042E+01    0.8781773567E+01    0.1349640042E+00    0    0
</event>
<event>
   24 9999    1    0.9119999695E+02    0.7565275169E-02    0.1185000000E+00
   11   -1    0    0    0    0    0.0000000000E+00    0.0000000000E+00    0.8000000000E+02    0.8000000000E+02    0.5109988851E-03    0    0
  -11   -1    0    0    0    0    0.0000000000E+00    0.0000000000E+00   -0.8000000000E+02    0.8000000000E+02    0.5109988851E-03    0    0
  -24    2    1    2    0    0    0.2038074732E+01    0.1420446038E+00   -0.5237696648E+01    0.7947247314E+02    0.7927336121E+02    0    0
   24    2    1    2    0    0   -0.2037601709E+01   -0.1429574490E+00    0.5073595047E+01    0.8036339569E+02    0.8017706299E+02    0    0
   22    1    1    2    0    0   -0.1011012228E-04    0.1917076588E-04    0.1380449682E+00    0.1380449682E+00    0.0000000000E+00    0    0
   22    1    1    2    0    0   -0.4545357078E-03    0.7163157570E-03    0.2521955408E-01    0.2523381822E-01    0.0000000000E+00    0    0
   22    1    1    2    0    0   -0.8338858606E-05    0.1773460681E-03    0.8374174358E-03    0.8560310234E-03    0.0000000000E+00    0    0
   15    2    3    3    0    0   -0.1583982849E+02   -0.2610303879E+02    0.2196793365E+02    0.3765656281E+02    0.1777029991E+01    0    0
  -16    1    3    3    0    0    0.1787790298E+02    0.2624508286E+02   -0.2720563126E+02    0.4181590652E+02    0.0000000000E+00    0    0
   16    1    4    4    0    0    0.5978100300E+01   -0.3897183228E+02   -0.4067302704E+01    0.3963690567E+02    0.0000000000E+00    0    0
  -15    2    4    4    0    0   -0.8015702248E+01    0.3882887268E+02    0.9140897751E+01    0.4072648621E+02    0.1777029991E+01    0    0
   16    1    8    8    0    0   -0.6548817158E+00   -0.1432219267E+01    0.8512991071E+00    0.1790204644E+01    0.6133957068E-03    0    0
*****    2    8    8    0    0   -0.1518556881E+02   -0.2467184448E+02    0.2111749840E+02    0.3586783981E+02    0.1118768930E+01    0    0
  111    1   13   13    0    0   -0.3991031885E+01   -0.6557838917E+01    0.5262266636E+01    0.9308236122E+01    0.1349641979E+00    0    0
  111    1   13   13    0    0   -0.2713222504E+01   -0.4980811119E+01    0.4206385136E+01    0.7062715054E+01    0.1349641532E+00    0    0
 -211    1   13   13    0    0   -0.8481314659E+01   -0.1313319397E+02    0.1164884663E+02    0.1949688530E+02    0.1395679563E+00    0    0
  -16    1   11   11    0    0   -0.1145269513E+01    0.5742249489E+01    0.1120297313E+01    0.5961555004E+01    0.6103515625E-04    0    0
   24    2   11   11    0    0   -0.6870747566E+01    0.3308815384E+02    0.8020959854E+01    0.3476653290E+02    0.1530736208E+01    0    0
  211    1   18   18    0    0   -0.2959359586E+00    0.1817680478E+01    0.3825316131E+00    0.1886093855E+01    0.1395679712E+00    0    0
  211    1   18   18    0    0   -0.1571297646E+00    0.1070459962E+01    0.3217967153E+00    0.1137368202E+01    0.1395679712E+00    0    0
  211    1   18   18    0    0   -0.2365408421E+01    0.1099852467E+02    0.2522735357E+01    0.1153023720E+02    0.1395679414E+00    0    0
 -211    1   18   18    0    0   -0.1819913864E+01    0.9706225395E+01    0.2478102684E+01    0.1018250275E+02    0.1395679265E+00    0    0
 -211    1   18   18    0    0   -0.6000536084E+00    0.2590934992E+01    0.6622959375E+00    0.2744289160E+01    0.1395679861E+00    0    0
  111    1   18   18    0    0   -0.1632306218E+01    0.6904327393E+01    0.1653497815E+01    0.7286043644E+01    0.1349639744E+00    0    0
</event>
<event>
   21 9999    1    0.9119999695E+02    0.7565275169E-02    0.1185000000E+00
   11   -1    0    0    0    0    0.0000000000E+00    0.0000000000E+00    0.8000000000E+02    0.8000000000E+02    0.5109988851E-03    0    0
  -11   -1    0    0    0    0    0.0000000000E+00    0.0000000000E+00   -0.8000000000E+02    0.8000000000E+02    0.5109988851E-03    0    0
  -24    2    1    2    0    0    0.6509877205E+01    0.1087556362E+02    0.2374181557E+02    0.8093405914E+02    0.7632818604E+02    0    0
   24    2    1    2    0    0   -0.6509872913E+01   -0.1087556934E+02   -0.2374105072E+02    0.7906465912E+02    0.7434330750E+02    0    0
   22    1    1    2    0    0    0.1407919854E-05    0.1968250558E-06   -0.1018796000E-02    0.1018796931E-02    0.0000000000E+00    0    0
   22    1    1    2    0    0   -0.1121508035E-05    0.1833394890E-05    0.2493550419E-03    0.2493642969E-03    0.0000000000E+00    0    0
   15    2    3    3    0    0   -0.2302437973E+02    0.1661153984E+02    0.3813992310E+02    0.4758021545E+02    0.1777029991E+01    0    0
  -16    1    3    3    0    0    0.2953425598E+02   -0.5735975742E+01   -0.1439810753E+02    0.3335384750E+02    0.0000000000E+00    0    0
   16    1    4    4    0    0   -0.1430653667E+02    0.2680893326E+02   -0.2666815758E+02    0.4043001938E+02    0.0000000000E+00    0    0
  -15    2    4    4    0    0    0.7796663284E+01   -0.3768450165E+02    0.2927107334E+01    0.3863464355E+02    0.1777029991E+01    0    0
   16    1    7    7    0    0   -0.5874558926E+01    0.3755424976E+01    0.9862955093E+01    0.1207855701E+02    0.5069960607E-03    0    0
  -24    2    7    7    0    0   -0.1715072632E+02    0.1285676765E+02    0.2827846718E+02    0.3550352859E+02    0.1176837683E+01    0    0
 -211    1   12   12    0    0   -0.3425741911E+01    0.2442843676E+01    0.5413258076E+01    0.6857553005E+01    0.1395678818E+00    0    0
 -211    1   12   12    0    0   -0.5682741165E+01    0.4420149803E+01    0.9506316185E+01    0.1192563629E+02    0.1395680159E+00    0    0
  211    1   12   12    0    0   -0.7008134365E+01    0.4984097481E+01    0.1156867218E+02    0.1441557598E+02    0.1395679265E+00    0    0
  111    1   12   12    0    0   -0.1034109235E+01    0.1009677768E+01    0.1790223479E+01    0.2304765940E+01    0.1349641085E+00    0    0
  -16    1   10   10    0    0    0.1137425661E+01   -0.5134224892E+01    0.8268203586E-01    0.5259356976E+01    0.4882812500E-03    0    0
   24    2   10   10    0    0    0.6659544468E+01   -0.3255176163E+02    0.2844540358E+01    0.3337680435E+02    0.1397493124E+01    0    0
  111    1   18   18    0    0    0.2560584784E+01   -0.1359115887E+02    0.1450937867E+01    0.1390682030E+02    0.1349638999E+00    0    0
  111    1   18   18    0    0    0.8233845234E+00   -0.3474480391E+01    0.1075672265E-01    0.3573276758E+01    0.1349634826E+00    0    0
  321    1   18   18    0    0    0.3275576830E+01   -0.1548612881E+02    0.1382846594E+01    0.1589671516E+02    0.4936671257E+00    0    0
</event>
<event>
   22 9999    1    0.9119999695E+02    0.7565275169E-02    0.1185000000E+00
   11   -1    0    0    0    0    0.0000000000E+00    0.0000000000E+00    0.8000000000E+02    0.8000000000E+02    0.5109988851E-03    0    0
  -11   -1    0    0    0    0    0.0000000000E+00    0.0000000000E+00   -0.8000000000E+02    0.8000000000E+02    0.5109988851E-03    0    0
  -24    2    1    2    0    0   -0.4299978256E+01    0.6647364497E+00    0.4288193703E+01    0.8042512512E+02    0.8019277191E+02    0    0
   24    2    1    2    0    0    0.4300053120E+01   -0.6647104025E+00   -0.4293621540E+01    0.7956945038E+02    0.7933428955E+02    0    0
   22    1    1    2    0    0   -0.7511166768E-04   -0.2610651427E-04    0.3172761295E-02    0.3173757810E-02    0.0000000000E+00    0    0
   22    1    1    2    0    0    0.1369487013E-07    0.5619190091E-07    0.2255524974E-02    0.2255524974E-02    0.0000000000E+00    0    0
   15    2    3    3    0    0   -0.2398112297E+02   -0.1344740200E+02   -0.2851493454E+02    0.3965080261E+02    0.1777029991E+01    0    0
  -16    1    3    3    0    0    0.1968114471E+02    0.1411213875E+02    0.3280312729E+02    0.4077431870E+02    0.0000000000E+00    0    0
   16    1    4    4    0    0   -0.2913772345E+01   -0.3701916504E+02    0.1202727604E+02    0.3903285599E+02    0.0000000000E+00    0    0
  -15    2    4    4    0    0    0.7213825703E+01    0.3635445404E+02   -0.1632089806E+02    0.4053659058E+02    0.1777029991E+01    0    0
   16    1    7    7    0    0   -0.9683901787E+01   -0.6098379612E+01   -0.1140372086E+02    0.1615589714E+02    0.2114319796E-03    0    0
 -323    2    7    7    0    0   -0.1429816628E+02   -0.7349552155E+01   -0.1711233521E+02    0.2349646759E+02    0.8935555816E+00    0    0
 -211    1   12   12    0    0   -0.2425851822E+01   -0.1261580467E+01   -0.2580181122E+01    0.3762068272E+01    0.1395680308E+00    0    0
  310    1   12   12    0    0   -0.1187231541E+02   -0.6087972164E+01   -0.1453215504E+02    0.1973439980E+02    0.4977200329E+00    0    0
  -16    1   10   10    0    0    0.1075958252E+01    0.5522793293E+01   -0.2537234545E+01    0.6172235489E+01    0.1525878906E-04    0    0
   24    2   10   10    0    0    0.6138151169E+01    0.3083309174E+02   -0.1378430557E+02    0.3436595154E+02    0.1629421234E+01    0    0
  211    1   16   16    0    0    0.2485894859E+00    0.1635829329E+01   -0.7503322363E+00    0.1822144985E+01    0.1395680010E+00    0    0
  211    1   16   16    0    0    0.1020140350E+00    0.1639679313E+01   -0.7577380538E+00    0.1814552546E+01    0.1395678818E+00    0    0
 -211    1   16   16    0    0    0.2215043068E+01    0.1034652996E+02   -0.4494362831E+01    0.1149677658E+02    0.1395680159E+00    0    0
  111    1   16   16    0    0    0.1471684813E+01    0.7370148182E+01   -0.3522321224E+01    0.8301198959E+01    0.1349639893E+00    0    0
  111    1   16   16    0    0    0.7021533847E+00    0.3159608603E+01   -0.1407906771E+01    0.3532217741E+01    0.1349639893E+00    0    0
  111    1   16   16    0    0    0.1398666501E+01    0.6681295395E+01   -0.2851644278E+01    0.7399058342E+01    0.1349639744E+00    0    0
</event>
<event>
   15 9999    1    0.9119999695E+02    0.7565275169E-02    0.1185000000E+00
   11   -1    0    0    0    0    0.0000000000E+00    0.0000000000E+00    0.8000000000E+02    0.8000000000E+02    0.5109988851E-03    0    0
  -11   -1    0    0    0    0    0.0000000000E+00    0.0000000000E+00   -0.8000000000E+02    0.8000000000E+02    0.5109988851E-03    0    0
  -24    2    1    2    0    0   -0.7488885880E+01   -0.7081193924E+00    0.4065435028E+02    0.9241747284E+02    0.8265366364E+02    0    0
   24    2    1    2    0    0    0.7695105553E+01    0.1028484583E+01   -0.2616117477E+02    0.5308435059E+02    0.4553316116E+02    0    0
   22    1    1    2    0    0   -0.2062197477E+00   -0.3203651905E+00   -0.1449317360E+02    0.1449818039E+02    0.0000000000E+00    0    0
   15    2    3    3    0    0   -0.3260638046E+02    0.2563110733E+02    0.5604866028E+01    0.4188916397E+02    0.1777029991E+01    0    0
  -16    1    3    3    0    0    0.2511749458E+02   -0.2633922768E+02    0.3504948425E+02    0.5052830505E+02    0.0000000000E+00    0    0
   16    1    4    4    0    0   -0.8411495686E+00    0.9041355133E+01    0.1089448452E+02    0.1418250465E+02    0.0000000000E+00    0    0
  -15    2    4    4    0    0    0.8536254883E+01   -0.8012870789E+01   -0.3705566025E+02    0.3890184402E+02    0.1777029991E+01    0    0
   16    1    6    6    0    0   -0.5451138973E+01    0.4670760155E+01    0.7371022701E+00    0.7216248035E+01    0.1220703125E-03    0    0
   11    1    6    6    0    0   -0.1485814476E+02    0.1166828537E+02    0.2030749798E+01    0.1900098228E+02    0.5459150416E-03    0    0
  -12    1    6    6    0    0   -0.1229837990E+02    0.9293070793E+01    0.2837234735E+01    0.1567358303E+02    0.3452669771E-03    0    0
  -16    1    9    9    0    0    0.2203979731E+01   -0.1693349481E+01   -0.8478861809E+01    0.8922782898E+01    0.1510543079E-03    0    0
  -11    1    9    9    0    0    0.2915633440E+01   -0.3055863857E+01   -0.1586339855E+02    0.1641604805E+02    0.5980199785E-03    0    0
   12    1    9    9    0    0    0.3416978359E+01   -0.3263972998E+01   -0.1271485996E+02    0.1356454659E+02    0.0000000000E+00    0    0
</event>
<event>
   19 9999    1    0.9119999695E+02    0.7565275169E-02    0.1185000000E+00
   11   -1    0    0    0    0    0.0000000000E+00    0.0000000000E+00    0.8000000000E+02    0.8000000000E+02    0.5109988851E-03    0    0
  -11   -1    0    0    0    0    0.0000000000E+00    0.0000000000E+00   -0.8000000000E+02    0.8000000000E+02    0.5109988851E-03    0    0
  -24    2    1    2    0    0   -0.4995920062E+00    0.4196561337E+01    0.3787532568E+01    0.8093741608E+02    0.8073821259E+02    0    0
   24    2    1    2    0    0    0.4995920062E+00   -0.4196561337E+01   -0.3787532568E+01    0.7906258392E+02    0.7885865021E+02    0    0
   15    2    3    3    0    0   -0.3709873199E+02   -0.1053901911E+01   -0.1104933357E+02    0.3876431656E+02    0.1777029991E+01    0    0
  -16    1    3    3    0    0    0.3730910110E+02    0.5407231808E+01    0.1587552643E+02    0.4090525055E+02    0.0000000000E+00    0    0
   22    1    3    3    0    0   -0.7099616528E+00   -0.1567687094E+00   -0.1038660169E+01    0.1267847419E+01    0.0000000000E+00    0    0
   16    1    4    4    0    0    0.3623723984E+02    0.6982483387E+01    0.1138651466E+02    0.3862052917E+02    0.0000000000E+00    0    0
  -15    2    4    4    0    0   -0.3573764801E+02   -0.1117904472E+02   -0.1517404747E+02    0.4044205475E+02    0.1777029991E+01    0    0
   16    1    5    5    0    0   -0.4472353935E+01   -0.3595528007E+00   -0.1374409199E+01    0.4692572117E+01    0.6391411298E-03    0    0
  -24    2    5    5    0    0   -0.3262791824E+02   -0.6943926811E+00   -0.9675382614E+01    0.3407335281E+02    0.1522229075E+01    0    0
 -321    1   11   11    0    0   -0.8521374702E+01   -0.3567183018E+00   -0.2697531223E+01    0.8958875656E+01    0.4936670363E+00    0    0
 -211    1   11   11    0    0   -0.1184061146E+02    0.7299155742E-01   -0.3297166348E+01    0.1229211998E+02    0.1395680606E+00    0    0
  321    1   11   11    0    0   -0.1226593113E+02   -0.4106659293E+00   -0.3680684090E+01    0.1282235909E+02    0.4936670661E+00    0    0
  -16    1    9    9    0    0   -0.8344319344E+01   -0.2802909136E+01   -0.3428098440E+01    0.9446471214E+01    0.2221713221E-03    0    0
   24    2    9    9    0    0   -0.2739473343E+02   -0.8376575470E+01   -0.1174654675E+02    0.3099717712E+02    0.1484988093E+01    0    0
  321    1   16   16    0    0   -0.1734437752E+02   -0.5327707291E+01   -0.7499097347E+01    0.1963904381E+02    0.4936669767E+00    0    0
  211    1   16   16    0    0   -0.8628483415E+00   -0.3782746792E+00   -0.3363964260E+00    0.1010069728E+01    0.1395680308E+00    0    0
 -321    1   16   16    0    0   -0.9187506676E+01   -0.2670593023E+01   -0.3911051750E+01    0.1034806156E+02    0.4936670959E+00    0    0
</event>
<event>
   23 9999    1    0.9119999695E+02    0.7565275169E-02    0.1185000000E+00
   11   -1    0    0    0    0    0.0000000000E+00    0.0000000000E+00    0.8000000000E+02    0.8000000000E+02    0.5109988851E-03    0    0
  -11   -1    0    0    0    0    0.0000000000E+00    0.0000000000E+00   -0.8000000000E+02    0.8000000000E+02    0.5109988851E-03    0    0
  -24    2    1    2    0    0    0.1010306263E+02   -0.2308927178E+00   -0.2808519554E+02    0.8540496063E+02    0.8001940155E+02    0    0
   24    2    1    2    0    0   -0.1041093922E+02    0.2205056667E+01    0.2791782188E+02    0.7258924103E+02    0.6615544891E+02    0    0
   22    1    1    2    0    0    0.3524645217E-04   -0.6843137817E-04   -0.7747352356E-03    0.7785498747E-03    0.0000000000E+00    0    0
   22    1    1    2    0    0    0.3078409731E+00   -0.1974095464E+01    0.1681495756E+00    0.2005017042E+01    0.0000000000E+00    0    0
   15    2    3    3    0    0    0.1004123116E+02    0.2293847084E+02    0.9570123672E+01    0.2686530685E+02    0.1777029991E+01    0    0
  -16    1    3    3    0    0   -0.1368264079E+01   -0.3097517204E+02   -0.3967287827E+02    0.5035147095E+02    0.0000000000E+00    0    0
   22    1    3    3    0    0    0.1430095553E+01    0.7805807114E+01    0.2017559528E+01    0.8188182831E+01    0.0000000000E+00    0    0
   16    1    4    4    0    0   -0.2113138008E+02    0.3015584373E+02    0.1812647247E+02    0.4104240799E+02    0.0000000000E+00    0    0
  -15    2    4    4    0    0    0.1072044182E+02   -0.2795078659E+02    0.9791347504E+01    0.3154683304E+02    0.1777029991E+01    0    0
   16    1    7    7    0    0    0.2786044836E+01    0.6595763206E+01    0.2803353548E+01    0.7689273357E+01    0.5090584746E-03    0    0
  -24    2    7    7    0    0    0.7255599022E+01    0.1634364891E+02    0.6767164230E+01    0.1917713737E+02    0.1486463904E+01    0    0
 -211    1   13   13    0    0    0.1313683033E+01    0.3823273659E+01    0.1601750255E+01    0.4350662231E+01    0.1395677924E+00    0    0
 -211    1   13   13    0    0    0.2079957962E+01    0.4739673615E+01    0.2056075573E+01    0.5571144104E+01    0.1395680904E+00    0    0
  211    1   13   13    0    0    0.1322724223E+01    0.2837555647E+01    0.9502213597E+00    0.3274708986E+01    0.1395680159E+00    0    0
  111    1   13   13    0    0    0.1309140205E+01    0.2258291245E+01    0.8620755076E+00    0.2752292871E+01    0.1349639446E+00    0    0
  111    1   13   13    0    0    0.1230092645E+01    0.2684853315E+01    0.1297039866E+01    0.3228326559E+01    0.1349640042E+00    0    0
  -16    1   11   11    0    0    0.2366512537E+01   -0.5779922485E+01    0.1478894711E+01    0.6418334484E+01    0.5459150416E-03    0    0
   24    2   11   11    0    0    0.8354351044E+01   -0.2217196274E+02    0.8312837601E+01    0.2512973785E+02    0.1004680514E+01    0    0
  211    1   20   20    0    0    0.2868120432E+01   -0.7806194305E+01    0.2950695753E+01    0.8825467110E+01    0.1395677626E+00    0    0
  111    1   20   20    0    0    0.5364373684E+01   -0.1392574787E+02    0.5066866875E+01    0.1576053047E+02    0.1349641979E+00    0    0
   22    1   20   20    0    0    0.1218576059E+00   -0.4400226772E+00    0.2952764034E+00    0.5437439084E+00    0.1930101134E-03    0    0
</event>
<event>
   16 9999    1    0.9119999695E+02    0.7565275169E-02    0.1185000000E+00
   11   -1    0    0    0    0    0.0000000000E+00    0.0000000000E+00    0.8000000000E+02    0.8000000000E+02    0.5109988851E-03    0    0
  -11   -1    0    0    0    0    0.0000000000E+00    0.0000000000E+00   -0.8000000000E+02    0.8000000000E+02    0.5109988851E-03    0    0
  -24    2    1    2    0    0   -0.1119757891E+01   -0.3430583715E+01   -0.1038026214E+01    0.8071150208E+02    0.8062409973E+02    0    0
   24    2    1    2    0    0    0.1118501902E+01    0.3431784868E+01    0.8784087896E+00    0.7912887573E+02    0.7904162598E+02    0    0
   22    1    1    2    0    0    0.1256002928E-02   -0.1201337785E-02    0.1596174687E+00    0.1596269310E+00    0.0000000000E+00    0    0
   15    2    3    3    0    0   -0.1270441151E+02    0.3646002579E+02   -0.5050255299E+01    0.3897946167E+02    0.1777029991E+01    0    0
  -16    1    3    3    0    0    0.1158465385E+02   -0.3989060974E+02    0.4012228966E+01    0.4173203659E+02    0.0000000000E+00    0    0
   16    1    4    4    0    0   -0.3423944092E+02    0.9925717354E+01   -0.1635611916E+02    0.3922220993E+02    0.0000000000E+00    0    0
  -15    2    4    4    0    0    0.3535794067E+02   -0.6493932247E+01    0.1723452759E+02    0.3990666580E+02    0.1777029991E+01    0    0
   16    1    6    6    0    0   -0.1111437440E+01    0.3146548033E+01   -0.2269373238E+00    0.3344780922E+01    0.5424923147E-03    0    0
  -24    2    6    6    0    0   -0.1159347343E+02    0.3331491089E+02   -0.4823516369E+01    0.3563621521E+02    0.1543206453E+01    0    0
  130    1   11   11    0    0   -0.6760457516E+01    0.1926331329E+02   -0.2840881109E+01    0.2061788940E+02    0.4977200627E+00    0    0
 -211    1   11   11    0    0   -0.2403990269E+01    0.6175875664E+01   -0.9830697179E+00    0.6701232433E+01    0.1395680904E+00    0    0
  310    1   11   11    0    0   -0.2429024458E+01    0.7875717163E+01   -0.9995649457E+00    0.8317087173E+01    0.4977200627E+00    0    0
  -16    1    9    9    0    0    0.1621438980E+02   -0.2791418076E+01    0.8773435593E+01    0.1864595413E+02    0.3452669771E-03    0    0
  321    1    9    9    0    0    0.1914494514E+02   -0.3702770233E+01    0.8461771965E+01    0.2126228333E+02    0.4936670065E+00    0    0
</event>
<event>
   19 9999    1    0.9119999695E+02    0.7565275169E-02    0.1185000000E+00
   11   -1    0    0    0    0    0.0000000000E+00    0.0000000000E+00    0.8000000000E+02    0.8000000000E+02    0.5109988851E-03    0    0
  -11   -1    0    0    0    0    0.0000000000E+00    0.0000000000E+00   -0.8000000000E+02    0.8000000000E+02    0.5109988851E-03    0    0
  -24    2    1    2    0    0    0.1426905823E+02    0.4759518147E+01    0.2382949591E+00    0.7699183655E+02    0.7550779724E+02    0    0
   24    2    1    2    0    0   -0.1427326488E+02   -0.4761461258E+01   -0.1430090666E+01    0.8181636047E+02    0.8040817261E+02    0    0
   22    1    1    2    0    0    0.4206088372E-02    0.1944478252E-02    0.1190766573E+01    0.1190775633E+01    0.0000000000E+00    0    0
   22    1    1    2    0    0    0.8329546120E-07   -0.1392705030E-05    0.1029061154E-02    0.1029062085E-02    0.0000000000E+00    0    0
   15    2    3    3    0    0   -0.7510489464E+01    0.3644687653E+02    0.7122951984E+01    0.3792988968E+02    0.1777029991E+01    0    0
  -16    1    3    3    0    0    0.2177954865E+02   -0.3168735695E+02   -0.6884656906E+01    0.3906194687E+02    0.0000000000E+00    0    0
   16    1    4    4    0    0    0.2595546913E+02   -0.1253007984E+02    0.2044471741E+02    0.3533660507E+02    0.0000000000E+00    0    0
  -15    2    4    4    0    0   -0.4022873306E+02    0.7768619061E+01   -0.2187480736E+02    0.4647975159E+02    0.1777029991E+01    0    0
   16    1    7    7    0    0   -0.3669736087E+00    0.1160316110E+01    0.1959457248E-01    0.1217122436E+01    0.3558930475E-03    0    0
  -24    2    7    7    0    0   -0.7143811703E+01    0.3528799438E+02    0.7103638172E+01    0.3671426010E+02    0.1094811201E+01    0    0
 -211    1   12   12    0    0   -0.4470593452E+01    0.2166176224E+02    0.4150133610E+01    0.2250469398E+02    0.1395681053E+00    0    0
 -211    1   12   12    0    0   -0.9037082195E+00    0.4127585411E+01    0.7800998688E+00    0.4299033165E+01    0.1395680159E+00    0    0
  211    1   12   12    0    0   -0.1282986879E+01    0.7237277031E+01    0.1706500769E+01    0.7546910763E+01    0.1395679563E+00    0    0
  111    1   12   12    0    0   -0.4865232706E+00    0.2261370897E+01    0.4669043720E+00    0.2363623857E+01    0.1349639893E+00    0    0
  -16    1   10   10    0    0   -0.5047145844E+01    0.5032514930E+00   -0.2557221651E+01    0.5680345535E+01    0.6823938020E-04    0    0
  -13    1   10   10    0    0   -0.2217055702E+02    0.4186776638E+01   -0.1240117264E+02    0.2574612427E+02    0.1056590676E+00    0    0
   14    1   10   10    0    0   -0.1301261234E+02    0.3078896761E+01   -0.6917273521E+01    0.1505511093E+02    0.3051757812E-03    0    0
</event>
<event>
   22 9999    1    0.9119999695E+02    0.7565275169E-02    0.1185000000E+00
   11   -1    0    0    0    0    0.0000000000E+00    0.0000000000E+00    0.8000000000E+02    0.8000000000E+02    0.5109988851E-03    0    0
  -11   -1    0    0    0    0    0.0000000000E+00    0.0000000000E+00   -0.8000000000E+02    0.8000000000E+02    0.5109988851E-03    0    0
  -24    2    1    2    0    0   -0.1749155426E+02    0.4472183228E+01   -0.8281455994E+01    0.7774216461E+02    0.7516187286E+02    0    0
   24    2    1    2    0    0    0.1749155807E+02   -0.4472178459E+01    0.8243145943E+01    0.8221952057E+02    0.7978813171E+02    0    0
   22    1    1    2    0    0   -0.4360551429E-05   -0.4562490631E-05    0.3788211197E-01    0.3788211197E-01    0.0000000000E+00    0    0
   22    1    1    2    0    0    0.1096265123E-07    0.1440004294E-07    0.4278535489E-03    0.4278535489E-03    0.0000000000E+00    0    0
   15    2    3    3    0    0   -0.1217091751E+02   -0.3514651108E+02   -0.2132465839E+01    0.3729763412E+02    0.1777029991E+01    0    0
  -16    1    3    3    0    0   -0.5320635796E+01    0.3961869431E+02   -0.6148989677E+01    0.4044453049E+02    0.0000000000E+00    0    0
   16    1    4    4    0    0   -0.4177856445E+01   -0.3924426270E+02   -0.3334412813E+01    0.3960662842E+02    0.0000000000E+00    0    0
  -15    2    4    4    0    0    0.2166941452E+02    0.3477208328E+02    0.1157755852E+02    0.4261289597E+02    0.1777029991E+01    0    0
   16    1    7    7    0    0   -0.1163347602E+01   -0.2607296228E+01   -0.2356390804E+00    0.2864768267E+01    0.4250606871E-03    0    0
  -24    2    7    7    0    0   -0.1100804901E+02   -0.3254059601E+02   -0.1896910787E+01    0.3443433380E+02    0.1434433222E+01    0    0
 -321    1   12   12    0    0   -0.4137706280E+01   -0.1265415573E+02   -0.6698526740E+00    0.1333944035E+02    0.4936670363E+00    0    0
  111    1   12   12    0    0   -0.3329090357E+01   -0.8961941719E+01   -0.3792802393E+00    0.9568767548E+01    0.1349640638E+00    0    0
  130    1   12   12    0    0   -0.3541252613E+01   -0.1092449951E+02   -0.8477779031E+00    0.1152612686E+02    0.4977200329E+00    0    0
  -16    1   10   10    0    0    0.3663705289E-01    0.1201219112E-01    0.1143179741E-01    0.4021504894E-01    0.2132480586E-04    0    0
   24    2   10   10    0    0    0.2163362885E+02    0.3476144028E+02    0.1156658268E+02    0.4257435989E+02    0.1555180073E+01    0    0
  211    1   17   17    0    0    0.2820745468E+01    0.4550369740E+01    0.1543660879E+01    0.5573583603E+01    0.1395679861E+00    0    0
  211    1   17   17    0    0    0.7197339058E+01    0.1192411613E+02    0.3535644054E+01    0.1437033367E+02    0.1395678520E+00    0    0
  211    1   17   17    0    0    0.1581319690E+01    0.2777547359E+01    0.1145336032E+01    0.3398030996E+01    0.1395679116E+00    0    0
 -211    1   17   17    0    0    0.2667591333E+01    0.4009233475E+01    0.1407080889E+01    0.5018899441E+01    0.1395679712E+00    0    0
 -211    1   17   17    0    0    0.7366634369E+01    0.1150017357E+02    0.3934860706E+01    0.1421351147E+02    0.1395679712E+00    0    0
</event>
<event>
   21 9999    1    0.9119999695E+02    0.7565275169E-02    0.1185000000E+00
   11   -1    0    0    0    0    0.0000000000E+00    0.0000000000E+00    0.8000000000E+02    0.8000000000E+02    0.5109988851E-03    0    0
  -11   -1    0    0    0    0    0.0000000000E+00    0.0000000000E+00   -0.8000000000E+02    0.8000000000E+02    0.5109988851E-03    0    0
  -24    2    1    2    0    0    0.1287936878E+02   -0.1780352211E+02    0.1077710819E+02    0.7475658417E+02    0.7063680267E+02    0    0
   24    2    1    2    0    0   -0.1287936878E+02    0.1780352211E+02   -0.1077710819E+02    0.8524341583E+02    0.8165445709E+02    0    0
   15    2    3    3    0    0    0.3055856705E+02   -0.1860062027E+02   -0.1867644691E+02    0.4039525223E+02    0.1777029991E+01    0    0
  -16    1    3    3    0    0   -0.1767919731E+02    0.7970974445E+00    0.2945355415E+02    0.3436133194E+02    0.0000000000E+00    0    0
   16    1    4    4    0    0    0.3907696247E+01   -0.1992315292E+02    0.2385192108E+02    0.3132277489E+02    0.0000000000E+00    0    0
  -15    2    4    4    0    0   -0.1678706551E+02    0.3772667694E+02   -0.3462902832E+02    0.5392063904E+02    0.1777029991E+01    0    0
   16    1    5    5    0    0    0.6016283035E+01   -0.3166708231E+01   -0.3781648159E+01    0.7779753685E+01    0.2796982299E-03    0    0
  -24    2    5    5    0    0    0.2454348564E+02   -0.1543464279E+02   -0.1489553261E+02    0.3261708832E+02    0.1177588940E+01    0    0
  111    1   10   10    0    0    0.2317841053E+01   -0.1527100563E+01   -0.1229381919E+01    0.3038752794E+01    0.1349638253E+00    0    0
  111    1   10   10    0    0    0.1014084816E+02   -0.6277356625E+01   -0.6414532185E+01    0.1354276371E+02    0.1349638551E+00    0    0
  111    1   10   10    0    0    0.6950841904E+01   -0.4555553913E+01   -0.4014381409E+01    0.9230424881E+01    0.1349640340E+00    0    0
 -211    1   10   10    0    0    0.5133959770E+01   -0.3074635506E+01   -0.3237240553E+01    0.6805154800E+01    0.1395680308E+00    0    0
  -16    1    8    8    0    0   -0.4015486240E+01    0.9150253296E+01   -0.8339933395E+01    0.1301559639E+02    0.2157918607E-04    0    0
   24    2    8    8    0    0   -0.1277223873E+02    0.2857790375E+02   -0.2629045868E+02    0.4090716171E+02    0.1543004036E+01    0    0
  211    1   16   16    0    0   -0.2297171593E+01    0.5155533314E+01   -0.4581544399E+01    0.7270938873E+01    0.1395680010E+00    0    0
  211    1   16   16    0    0   -0.4035157204E+01    0.8548038483E+01   -0.8089643478E+01    0.1244239807E+02    0.1395679861E+00    0    0
  211    1   16   16    0    0   -0.1685109586E+00    0.6611244678E+00   -0.6138278842E+00    0.9283024073E+00    0.1395676732E+00    0    0
 -211    1   16   16    0    0   -0.4909013748E+01    0.1087788582E+02   -0.1009568214E+02    0.1563230896E+02    0.1395679712E+00    0    0
 -211    1   16   16    0    0   -0.1362384558E+01    0.3335321188E+01   -0.2909759521E+01    0.4633210659E+01    0.1395680010E+00    0    0
</event>
<event>
   18 9999    1    0.9119999695E+02    0.7565275169E-02    0.1185000000E+00
   11   -1    0    0    0    0    0.0000000000E+00    0.0000000000E+00    0.8000000000E+02    0.8000000000E+02    0.5109988851E-03    0    0
  -11   -1    0    0    0    0    0.0000000000E+00    0.0000000000E+00   -0.8000000000E+02    0.8000000000E+02    0.5109988851E-03    0    0
  -24    2    1    2    0    0    0.1084939384E+02    0.1033291435E+02   -0.7704303741E+01    0.7669744873E+02    0.7482421875E+02    0    0
   24    2    1    2    0    0   -0.1084939384E+02   -0.1033291435E+02    0.7704303741E+01    0.8330255127E+02    0.8158112335E+02    0    0
   15    2    3    3    0    0   -0.7830508232E+01   -0.2808238220E+02    0.9401379585E+01    0.3068355942E+02    0.1777029991E+01    0    0
  -16    1    3    3    0    0    0.1867990303E+02    0.3841529465E+02   -0.1710568428E+02    0.4601388931E+02    0.0000000000E+00    0    0
   16    1    4    4    0    0   -0.3496488929E-01   -0.7659711838E+01    0.4432590866E+02    0.4498287201E+02    0.0000000000E+00    0    0
  -15    2    4    4    0    0   -0.1081442928E+02   -0.2673202276E+01   -0.3662160492E+02    0.3831967926E+02    0.1777029991E+01    0    0
   16    1    5    5    0    0   -0.2801051617E+01   -0.9772544861E+01    0.3297927856E+01    0.1068760300E+02    0.4693783121E-03    0    0
  -24    2    5    5    0    0   -0.5029765129E+01   -0.1831094170E+02    0.6103822231E+01    0.1999716377E+02    0.1428562880E+01    0    0
 -321    1   10   10    0    0   -0.2291957140E+01   -0.8192579269E+01    0.3061273336E+01    0.9054640770E+01    0.4936670363E+00    0    0
  111    1   10   10    0    0   -0.1081818342E+01   -0.4551315784E+01    0.1448345780E+01    0.4899054050E+01    0.1349641085E+00    0    0
  130    1   10   10    0    0   -0.1655989170E+01   -0.5567047119E+01    0.1594202876E+01    0.6043469429E+01    0.4977199733E+00    0    0
  -16    1    8    8    0    0   -0.3576730728E+01   -0.2937122881E+00   -0.1078326607E+02    0.1136477470E+02    0.0000000000E+00    0    0
20213    2    8    8    0    0   -0.7238124371E+01   -0.2379595280E+01   -0.2583978081E+02    0.2695641327E+02    0.9491822720E+00    0    0
  111    1   15   15    0    0   -0.2200949430E+01   -0.4993886352E+00   -0.8418155670E+01    0.8716485977E+01    0.1349639297E+00    0    0
  111    1   15   15    0    0   -0.1338502765E+01   -0.5509910583E+00   -0.4110944748E+01    0.4360419750E+01    0.1349641681E+00    0    0
  211    1   15   15    0    0   -0.3698672771E+01   -0.1329215646E+01   -0.1331068420E+02    0.1387950897E+02    0.1395679563E+00    0    0
</event>
<event>
   18 9999    1    0.9119999695E+02    0.7565275169E-02    0.1185000000E+00
   11   -1    0    0    0    0    0.0000000000E+00    0.0000000000E+00    0.8000000000E+02    0.8000000000E+02    0.5109988851E-03    0    0
  -11   -1    0    0    0    0    0.0000000000E+00    0.0000000000E+00   -0.8000000000E+02    0.8000000000E+02    0.5109988851E-03    0    0
  -24    2    1    2    0    0   -0.3946197748E+01   -0.2837546158E+02    0.4618849182E+02    0.6318271637E+02    0.3221707535E+02    0    0
   24    2    1    2    0    0    0.3946197748E+01    0.2837546158E+02   -0.4618849182E+02    0.9681728363E+02    0.8012159729E+02    0    0
   15    2    3    3    0    0    0.1292510748E+01   -0.3062491798E+02    0.4819022369E+02    0.5714028168E+02    0.1777029991E+01    0    0
  -16    1    3    3    0    0   -0.5238708496E+01    0.2249457359E+01   -0.2001732349E+01    0.6042438030E+01    0.0000000000E+00    0    0
   16    1    4    4    0    0    0.3423579788E+02    0.1375644207E+02    0.3203664303E+01    0.3703502274E+02    0.0000000000E+00    0    0
  -15    2    4    4    0    0   -0.3028960037E+02    0.1461901855E+02   -0.4939215469E+02    0.5978225708E+02    0.1777029991E+01    0    0
   16    1    5    5    0    0    0.2048546374E+00   -0.1110432148E+01    0.1904945254E+01    0.2214461803E+01    0.3314618662E-03    0    0
  -24    2    5    5    0    0    0.1087706923E+01   -0.2951569176E+02    0.4628717422E+02    0.5492806625E+02    0.1493624806E+01    0    0
 -321    1   10   10    0    0    0.2269853950E+00   -0.1075578117E+02    0.1667346764E+02    0.1984909439E+02    0.4936669767E+00    0    0
  111    1   10   10    0    0    0.1075317264E+00   -0.2002358913E+01    0.3563208580E+01    0.4090926170E+01    0.1349642128E+00    0    0
  310    1   10   10    0    0    0.7531896234E+00   -0.1675754547E+02    0.2605049133E+02    0.3098803711E+02    0.4977199435E+00    0    0
  -16    1    8    8    0    0   -0.5634603024E+01    0.3188140869E+01   -0.9392912865E+01    0.1140788364E+02    0.1614838402E-03    0    0
   24    2    8    8    0    0   -0.2465618896E+02    0.1143145370E+02   -0.4000118637E+02    0.4837672806E+02    0.1267712593E+01    0    0
  211    1   15   15    0    0   -0.2511912823E+01    0.9452022910E+00   -0.4236938000E+01    0.5017393589E+01    0.1395679116E+00    0    0
  310    1   15   15    0    0   -0.1838627243E+02    0.8646664619E+01   -0.2994512367E+02    0.3619085312E+02    0.4977199733E+00    0    0
  111    1   15   15    0    0   -0.3758002996E+01    0.1839585781E+01   -0.5819124222E+01    0.7168478489E+01    0.1349640191E+00    0    0
</event>
<event>
   20 9999    1    0.9119999695E+02    0.7565275169E-02    0.1185000000E+00
   11   -1    0    0    0    0    0.0000000000E+00    0.0000000000E+00    0.8000000000E+02    0.8000000000E+02    0.5109988851E-03    0    0
  -11   -1    0    0    0    0    0.0000000000E+00    0.0000000000E+00   -0.8000000000E+02    0.8000000000E+02    0.5109988851E-03    0    0
  -24    2    1    2    0    0    0.8583574295E+01    0.2171655083E+02    0.3868655014E+02    0.9134360504E+02    0.7938336182E+02    0    0
   24    2    1    2    0    0   -0.8583765030E+01   -0.2171644783E+02   -0.3871397018E+02    0.6862897491E+02    0.5163216019E+02    0    0
   22    1    1    2    0    0    0.1906035031E-03   -0.1019356860E-03    0.2741911449E-01    0.2741996571E-01    0.0000000000E+00    0    0
   15    2    3    3    0    0   -0.1463326931E+02    0.3727411652E+02    0.4739385223E+02    0.6207114410E+02    0.1777029991E+01    0    0
  -16    1    3    3    0    0    0.2321684265E+02   -0.1555756474E+02   -0.8707299232E+01    0.2927245522E+02    0.0000000000E+00    0    0
   16    1    4    4    0    0   -0.2923837280E+02   -0.1309034157E+02   -0.3179074287E+02    0.4513192749E+02    0.0000000000E+00    0    0
  -15    2    4    4    0    0    0.2065460777E+02   -0.8626106262E+01   -0.6923228264E+01    0.2349705124E+02    0.1777029991E+01    0    0
   16    1    6    6    0    0   -0.2465080261E+01    0.6644015312E+01    0.7882929325E+01    0.1060000610E+02    0.3112194536E-03    0    0
  -24    2    6    6    0    0   -0.1216876507E+02    0.3063156700E+02    0.3951278687E+02    0.5147358322E+02    0.1377553225E+01    0    0
 -321    1   11   11    0    0   -0.7619030476E+01    0.1865459633E+02    0.2451820946E+02    0.3174003601E+02    0.4936670065E+00    0    0
  111    1   11   11    0    0   -0.6635935307E+00    0.1820367098E+01    0.2215342283E+01    0.2946192265E+01    0.1349636018E+00    0    0
  130    1   11   11    0    0   -0.3886141300E+01    0.1015660477E+02    0.1277923775E+02    0.1678735733E+02    0.4977200627E+00    0    0
  -16    1    9    9    0    0    0.3753556252E+01   -0.1465985894E+01   -0.8496230841E+00    0.4118271351E+01    0.2990099892E-03    0    0
   24    2    9    9    0    0    0.1690186501E+02   -0.7160460472E+01   -0.6073877811E+01    0.1937970543E+02    0.1317494035E+01    0    0
  111    1   16   16    0    0    0.5241110802E+01   -0.2552510977E+01   -0.1793719888E+01    0.6100835800E+01    0.1349644214E+00    0    0
  111    1   16   16    0    0    0.1623325109E+01   -0.5843227506E+00   -0.6361426115E+00    0.1843776107E+01    0.1349636614E+00    0    0
  111    1   16   16    0    0    0.3026795626E+01   -0.1495099664E+01   -0.1318470240E+01    0.3626760721E+01    0.1349641681E+00    0    0
  211    1   16   16    0    0    0.7010631561E+01   -0.2528526068E+01   -0.2325544357E+01    0.7808331013E+01    0.1395680457E+00    0    0
</event>
<event>
   17 9999    1    0.9119999695E+02    0.7565275169E-02    0.1185000000E+00
   11   -1    0    0    0    0    0.0000000000E+00    0.0000000000E+00    0.8000000000E+02    0.8000000000E+02    0.5109988851E-03    0    0
  -11   -1    0    0    0    0    0.0000000000E+00    0.0000000000E+00   -0.8000000000E+02    0.8000000000E+02    0.5109988851E-03    0    0
  -24    2    1    2    0    0    0.4982459545E+01   -0.4469617844E+01   -0.1639323592E+01    0.8050746155E+02    0.8021197510E+02    0    0
   24    2    1    2    0    0   -0.4982459545E+01    0.4469617844E+01    0.1639323592E+01    0.7949253845E+02    0.7919326782E+02    0    0
   15    2    3    3    0    0    0.4121301651E+02   -0.1225647736E+02    0.3113081455E+01    0.4314606476E+02    0.1777029991E+01    0    0
  -16    1    3    3    0    0   -0.3623055649E+02    0.7786859989E+01   -0.4752405167E+01    0.3736139297E+02    0.0000000000E+00    0    0
   16    1    4    4    0    0    0.3595548630E+02   -0.6825625420E+01   -0.3077814341E+01    0.3672681808E+02    0.0000000000E+00    0    0
  -15    2    4    4    0    0   -0.4093794632E+02    0.1129524326E+02    0.4717137814E+01    0.4276572418E+02    0.1777029991E+01    0    0
   16    1    5    5    0    0    0.8023973465E+01   -0.2256099701E+01    0.2907432914E+00    0.8340183258E+01    0.2990099892E-03    0    0
  -24    2    5    5    0    0    0.3319066620E+02   -0.1000086021E+02    0.2822460890E+01    0.3480758286E+02    0.1401413321E+01    0    0
  111    1   10   10    0    0    0.1766975212E+02   -0.5340992928E+01    0.1629813194E+01    0.1853161812E+02    0.1349630654E+00    0    0
  111    1   10   10    0    0    0.5440377712E+01   -0.1326520443E+01    0.5326170921E+00    0.5626656532E+01    0.1349642128E+00    0    0
 -321    1   10   10    0    0    0.1008053589E+02   -0.3333347797E+01    0.6600308418E+00    0.1064930820E+02    0.4936669767E+00    0    0
  -16    1    8    8    0    0   -0.1798789215E+02    0.4709050179E+01    0.2127587795E+01    0.1871539497E+02    0.4037096005E-04    0    0
   24    2    8    8    0    0   -0.2295166397E+02    0.6586637020E+01    0.2589735746E+01    0.2405201149E+02    0.1276634693E+01    0    0
  321    1   15   15    0    0   -0.5366905689E+01    0.1519285917E+01    0.3887110949E+00    0.5613083839E+01    0.4936669767E+00    0    0
  130    1   15   15    0    0   -0.1758476257E+02    0.5067352295E+01    0.2201025009E+01    0.1843893051E+02    0.4977201521E+00    0    0
</event>
<event>
   17 9999    1    0.9119999695E+02    0.7565275169E-02    0.1185000000E+00
   11   -1    0    0    0    0    0.0000000000E+00    0.0000000000E+00    0.8000000000E+02    0.8000000000E+02    0.5109988851E-03    0    0
  -11   -1    0    0    0    0    0.0000000000E+00    0.0000000000E+00   -0.8000000000E+02    0.8000000000E+02    0.5109988851E-03    0    0
  -24    2    1    2    0    0    0.2868363380E+02    0.9128038406E+01    0.6391505718E+01    0.7484407043E+02    0.6822544861E+02    0    0
   24    2    1    2    0    0   -0.2868363762E+02   -0.9128036499E+01   -0.6391918182E+01    0.8515551758E+02    0.7940109253E+02    0    0
   22    1    1    2    0    0    0.4695873486E-05   -0.1718956355E-05    0.4123597464E-03    0.4123900726E-03    0.0000000000E+00    0    0
   15    2    3    3    0    0    0.1245365381E+01   -0.3794452429E+01   -0.2837388039E+02    0.2870860100E+02    0.1777029991E+01    0    0
  -16    1    3    3    0    0    0.2743826675E+02    0.1292249107E+02    0.3476538849E+02    0.4613546753E+02    0.0000000000E+00    0    0
   16    1    4    4    0    0   -0.1012575722E+02    0.2472033882E+02    0.2406356239E+02    0.3595387650E+02    0.0000000000E+00    0    0
  -15    2    4    4    0    0   -0.1855788040E+02   -0.3384837723E+02   -0.3045548248E+02    0.4920164108E+02    0.1777029991E+01    0    0
   16    1    6    6    0    0    0.9282957911E+00   -0.2213689566E+01   -0.1352021790E+02    0.1373165894E+02    0.1258271950E-03    0    0
   13    1    6    6    0    0   -0.1630299538E+00   -0.1386012316E+01   -0.1077447414E+02    0.1086499310E+02    0.1056586802E+00    0    0
  -14    1    6    6    0    0    0.4801484942E+00   -0.1948996335E+00   -0.4080305099E+01    0.4113078594E+01    0.0000000000E+00    0    0
  -16    1    9    9    0    0   -0.1390910745E+01   -0.1873528481E+01   -0.1880323529E+01    0.2996724606E+01    0.4727763007E-03    0    0
20213    2    9    9    0    0   -0.1716769981E+02   -0.3197617912E+02   -0.2857635689E+02    0.4620685196E+02    0.1122176766E+01    0    0
  111    1   14   14    0    0   -0.6695157528E+01   -0.1300203896E+02   -0.1137060356E+02    0.1852530670E+02    0.1349639744E+00    0    0
  111    1   14   14    0    0   -0.2565021992E+01   -0.5213245869E+01   -0.4471199989E+01    0.7332606316E+01    0.1349642575E+00    0    0
  211    1   14   14    0    0   -0.7907520771E+01   -0.1376089668E+02   -0.1273455524E+02    0.2034894371E+02    0.1395681798E+00    0    0
</event>
<event>
   22 9999    1    0.9119999695E+02    0.7565275169E-02    0.1185000000E+00
   11   -1    0    0    0    0    0.0000000000E+00    0.0000000000E+00    0.8000000000E+02    0.8000000000E+02    0.5109988851E-03    0    0
  -11   -1    0    0    0    0    0.0000000000E+00    0.0000000000E+00   -0.8000000000E+02    0.8000000000E+02    0.5109988851E-03    0    0
  -24    2    1    2    0    0    0.1396567822E+02   -0.6229133606E+01    0.1257884121E+02    0.7650438690E+02    0.7389757538E+02    0    0
   24    2    1    2    0    0   -0.1396568298E+02    0.6229113102E+01   -0.1256584263E+02    0.8348261261E+02    0.8110243225E+02    0    0
   22    1    1    2    0    0    0.5001897534E-05    0.2037731065E-04   -0.1299878303E-01    0.1299879979E-01    0.0000000000E+00    0    0
   15    2    3    3    0    0    0.1099142742E+02    0.3064899826E+02   -0.8798126221E+01    0.3377480316E+02    0.1777029991E+01    0    0
  -16    1    3    3    0    0    0.2974250555E+01   -0.3687813187E+02    0.2137696648E+02    0.4272958374E+02    0.0000000000E+00    0    0
   16    1    4    4    0    0   -0.3263365936E+02   -0.8343564987E+01    0.2294951248E+02    0.4075844574E+02    0.0000000000E+00    0    0
  -15    2    4    4    0    0    0.1866797447E+02    0.1457267857E+02   -0.3551535416E+02    0.4272416687E+02    0.1777029991E+01    0    0
   16    1    6    6    0    0    0.1150612593E+01    0.2930728912E+01   -0.1144507289E+01    0.3350071430E+01    0.2283726499E-03    0    0
  -24    2    6    6    0    0    0.9841247559E+01    0.2771947479E+02   -0.7653964996E+01    0.3042606163E+02    0.1393779993E+01    0    0
  111    1   11   11    0    0    0.4708733082E+01    0.1438611794E+02   -0.3989036560E+01    0.1565449429E+02    0.1349642873E+00    0    0
  111    1   11   11    0    0    0.1498728514E+01    0.3290805101E+01   -0.9234448671E+00    0.3734508038E+01    0.1349638104E+00    0    0
 -321    1   11   11    0    0    0.3633786678E+01    0.1004255390E+02   -0.2741484404E+01    0.1103706264E+02    0.4936670363E+00    0    0
  -16    1    9    9    0    0    0.9200497866E+00    0.6750758290E+00   -0.1478816271E+01    0.1867917776E+01    0.0000000000E+00    0    0
   24    2    9    9    0    0    0.1774865913E+02    0.1389817524E+02   -0.3403793335E+02    0.4085792923E+02    0.1617167950E+01    0    0
  211    1   16   16    0    0    0.3055902481E+01    0.2654451609E+01   -0.6093255043E+01    0.7316548824E+01    0.1395680159E+00    0    0
  211    1   16   16    0    0    0.1321816683E+01    0.1113460064E+01   -0.2558910608E+01    0.3091034651E+01    0.1395679861E+00    0    0
  211    1   16   16    0    0    0.2504222631E+01    0.1820575595E+01   -0.4708719254E+01    0.5637121677E+01    0.1395680010E+00    0    0
 -211    1   16   16    0    0    0.5948898315E+01    0.4636953354E+01   -0.1189753056E+02    0.1408763409E+02    0.1395679861E+00    0    0
 -211    1   16   16    0    0    0.2788740873E+01    0.2026535273E+01   -0.4540345669E+01    0.5702467918E+01    0.1395678520E+00    0    0
  111    1   16   16    0    0    0.2129078388E+01    0.1646199942E+01   -0.4239173412E+01    0.5023122311E+01    0.1349639893E+00    0    0
</event>
<event>
   22 9999    1    0.9119999695E+02    0.7565275169E-02    0.1185000000E+00
   11   -1    0    0    0    0    0.0000000000E+00    0.0000000000E+00    0.8000000000E+02    0.8000000000E+02    0.5109988851E-03    0    0
  -11   -1    0    0    0    0    0.0000000000E+00    0.0000000000E+00   -0.8000000000E+02    0.8000000000E+02    0.5109988851E-03    0    0
  -24    2    1    2    0    0   -0.2660842896E+01   -0.2426323414E+01   -0.1320312262E+01    0.7838131714E+02    0.7828742218E+02    0    0
   24    2    1    2    0    0    0.2660885572E+01    0.2426294327E+01    0.6340717673E+00    0.8092741394E+02    0.8084477234E+02    0    0
   22    1    1    2    0    0    0.2999370336E-03   -0.1844914077E-03    0.6887379885E+00    0.6887381077E+00    0.0000000000E+00    0    0
   22    1    1    2    0    0   -0.3426400945E-03    0.2129746572E-03   -0.2129827859E-02    0.2167701023E-02    0.0000000000E+00    0    0
   22    1    1    2    0    0    0.2670025978E-07    0.4598069836E-06   -0.3676408087E-03    0.3676410997E-03    0.0000000000E+00    0    0
   15    2    3    3    0    0   -0.2521744251E+01    0.3738592529E+02   -0.7016050339E+01    0.3816345596E+02    0.1777029991E+01    0    0
  -16    1    3    3    0    0   -0.1390986443E+00   -0.3981224823E+02    0.5695738316E+01    0.4021785736E+02    0.0000000000E+00    0    0
   16    1    4    4    0    0    0.3674298859E+02    0.1501033020E+02    0.1412853909E+02    0.4213042450E+02    0.0000000000E+00    0    0
  -15    2    4    4    0    0   -0.3408210373E+02   -0.1258403587E+02   -0.1349446774E+02    0.3879698563E+02    0.1777029991E+01    0    0
   16    1    8    8    0    0    0.1333362758E+00    0.6029503822E+01   -0.1017406702E+01    0.6116192818E+01    0.1585739810E-03    0    0
 -323    2    8    8    0    0   -0.2655179977E+01    0.3135789490E+02   -0.5998919964E+01    0.3204876709E+02    0.8768851757E+00    0    0
 -211    1   13   13    0    0   -0.8532758355E+00    0.9653150558E+01   -0.1572762251E+01    0.9818576813E+01    0.1395678967E+00    0    0
  130    1   13   13    0    0   -0.1801903963E+01    0.2170474434E+02   -0.4426157951E+01    0.2223019028E+02    0.4977200329E+00    0    0
  -16    1   11   11    0    0   -0.8173231125E+01   -0.2588186026E+01   -0.3432342768E+01    0.9234792709E+01    0.5069960607E-03    0    0
   24    2   11   11    0    0   -0.2591021156E+02   -0.9996344566E+01   -0.1006265545E+02    0.2956372070E+02    0.1220866561E+01    0    0
  211    1   17   17    0    0   -0.4500240803E+01   -0.1761827111E+01   -0.1786726356E+01    0.5154422760E+01    0.1395679414E+00    0    0
  211    1   17   17    0    0   -0.6929607868E+01   -0.2547941208E+01   -0.2868259430E+01    0.7921986103E+01    0.1395679265E+00    0    0
 -211    1   17   17    0    0   -0.1105166912E+01   -0.5376774073E+00   -0.4617808759E+00    0.1320307374E+01    0.1395680308E+00    0    0
  111    1   17   17    0    0   -0.6037706375E+01   -0.2165493965E+01   -0.2170168161E+01    0.6772821426E+01    0.1349639744E+00    0    0
  111    1   17   17    0    0   -0.7337488651E+01   -0.2983404398E+01   -0.2775720119E+01    0.8394181252E+01    0.1349642426E+00    0    0
</event>
<event>
   19 9999    1    0.9119999695E+02    0.7565275169E-02    0.1185000000E+00
   11   -1    0    0    0    0    0.0000000000E+00    0.0000000000E+00    0.8000000000E+02    0.8000000000E+02    0.5109988851E-03    0    0
  -11   -1    0    0    0    0    0.0000000000E+00    0.0000000000E+00   -0.8000000000E+02    0.8000000000E+02    0.5109988851E-03    0    0
  -24    2    1    2    0    0   -0.4652682304E+01   -0.7767535686E+01    0.5420084953E+01    0.7968261719E+02    0.7898075104E+02    0    0
   24    2    1    2    0    0    0.4652777672E+01    0.7768123150E+01   -0.5310002327E+01    0.8020730591E+02    0.7951744080E+02    0    0
   22    1    1    2    0    0   -0.9527675138E-04   -0.5873937043E-03   -0.1100825667E+00    0.1100841761E+00    0.0000000000E+00    0    0
   15    2    3    3    0    0   -0.2354509163E+02    0.1451634121E+02    0.3047592545E+02    0.4119509125E+02    0.1777029991E+01    0    0
  -16    1    3    3    0    0    0.1889241028E+02   -0.2228387642E+02   -0.2505584145E+02    0.3848752213E+02    0.0000000000E+00    0    0
   16    1    4    4    0    0   -0.6768208981E+01   -0.6478589535E+01    0.3483290863E+02    0.3607093430E+02    0.0000000000E+00    0    0
  -15    2    4    4    0    0    0.1142098618E+02    0.1424671268E+02   -0.4014291000E+02    0.4413636780E+02    0.1777029991E+01    0    0
   16    1    6    6    0    0   -0.2498881578E+01    0.1435167551E+01    0.2671881199E+01    0.3929766417E+01    0.2589502255E-03    0    0
  -24    2    6    6    0    0   -0.2104713821E+02    0.1308174515E+02    0.2780524445E+02    0.3726694489E+02    0.1256792068E+01    0    0
 -321    1   11   11    0    0   -0.9028267860E+01    0.5479912281E+01    0.1189231873E+02    0.1591257381E+02    0.4936670661E+00    0    0
  111    1   11   11    0    0   -0.1487781763E+01    0.8237246275E+00    0.1838353395E+01    0.2507942438E+01    0.1349636614E+00    0    0
  310    1   11   11    0    0   -0.1053108883E+02    0.6778109074E+01    0.1407457352E+02    0.1884642982E+02    0.4977199435E+00    0    0
  -16    1    9    9    0    0    0.4789220810E+01    0.6482734203E+01   -0.1865472603E+02    0.2032144928E+02    0.4401307669E-03    0    0
   24    2    9    9    0    0    0.6632215500E+01    0.7764539242E+01   -0.2148976517E+02    0.2381665611E+02    0.1071786880E+01    0    0
  111    1   16   16    0    0    0.2658233881E+01    0.2878667116E+01   -0.7751948833E+01    0.8686993599E+01    0.1349639595E+00    0    0
  111    1   16   16    0    0    0.1455231428E+01    0.1560873866E+01   -0.4622064114E+01    0.5092711926E+01    0.1349642724E+00    0    0
  321    1   16   16    0    0    0.2518749714E+01    0.3324998140E+01   -0.9115752220E+01    0.1003694916E+02    0.4936670363E+00    0    0
</event>
<event>
   18 9999    1    0.9119999695E+02    0.7565275169E-02    0.1185000000E+00
   11   -1    0    0    0    0    0.0000000000E+00    0.0000000000E+00    0.8000000000E+02    0.8000000000E+02    0.5109988851E-03    0    0
  -11   -1    0    0    0    0    0.0000000000E+00    0.0000000000E+00   -0.8000000000E+02    0.8000000000E+02    0.5109988851E-03    0    0
  -24    2    1    2    0    0   -0.1211336136E+02   -0.7781448841E+01    0.4433366299E+01    0.8135710907E+02    0.7995023346E+02    0    0
   24    2    1    2    0    0    0.1211336136E+02    0.7781448841E+01   -0.4433366299E+01    0.7864289093E+02    0.7718656158E+02    0    0
   15    2    3    3    0    0   -0.3538467407E+02    0.1241804123E+02    0.2427457619E+02    0.4470677567E+02    0.1777029991E+01    0    0
  -16    1    3    3    0    0    0.2327131271E+02   -0.2019948959E+02   -0.1984120941E+02    0.3665033340E+02    0.0000000000E+00    0    0
   16    1    4    4    0    0   -0.2801315117E+02   -0.1512043190E+02    0.2311827421E+01    0.3191721535E+02    0.0000000000E+00    0    0
  -15    2    4    4    0    0    0.4012651443E+02    0.2290188026E+02   -0.6745193958E+01    0.4672567368E+02    0.1777029991E+01    0    0
   16    1    5    5    0    0   -0.1056782818E+02    0.3608541727E+01    0.7634171486E+01    0.1352705193E+02    0.2589502255E-03    0    0
  -24    2    5    5    0    0   -0.2481823921E+02    0.8809988976E+01    0.1664136124E+02    0.3118148422E+02    0.1337596416E+01    0    0
 -211    1   10   10    0    0   -0.2469970465E+01    0.9253898263E+00    0.1870453358E+01    0.3236537695E+01    0.1395680457E+00    0    0
 -211    1   10   10    0    0   -0.8197023392E+01    0.3108851433E+01    0.5245243073E+01    0.1021705437E+02    0.1395679563E+00    0    0
  211    1   10   10    0    0   -0.8245578766E+01    0.2884232283E+01    0.5548542500E+01    0.1034959698E+02    0.1395679563E+00    0    0
  111    1   10   10    0    0   -0.4998064995E+01    0.1608915091E+01    0.3431638956E+01    0.6274043560E+01    0.1349639744E+00    0    0
  111    1   10   10    0    0   -0.9076037407E+00    0.2826017737E+00    0.5454857945E+00    0.1104254723E+01    0.1349640638E+00    0    0
  -16    1    8    8    0    0    0.2359380484E+01    0.1006190300E+01   -0.3450050950E+00    0.2588073254E+01    0.9650505672E-04    0    0
  -11    1    8    8    0    0    0.3264104080E+02    0.1923856926E+02   -0.5257971764E+01    0.3825188065E+02    0.5854286719E-03    0    0
   12    1    8    8    0    0    0.5127670765E+01    0.2658022642E+01   -0.1142482519E+01    0.5887559891E+01    0.8631674427E-04    0    0
</event>
<event>
   29 9999    1    0.9119999695E+02    0.7565275169E-02    0.1185000000E+00
   11   -1    0    0    0    0    0.0000000000E+00    0.0000000000E+00    0.8000000000E+02    0.8000000000E+02    0.5109988851E-03    0    0
  -11   -1    0    0    0    0    0.0000000000E+00    0.0000000000E+00   -0.8000000000E+02    0.8000000000E+02    0.5109988851E-03    0    0
  -24    2    1    2    0    0    0.1753968000E+01   -0.1086799908E+02   -0.4458787441E+01    0.8128491211E+02    0.8041248322E+02    0    0
   24    2    1    2    0    0   -0.1774413347E+01    0.1083893871E+02    0.4326639652E+01    0.7832704163E+02    0.7743238068E+02    0    0
   22    1    1    2    0    0    0.1044860910E-03   -0.1685040770E-03    0.2445788831E+00    0.2445789576E+00    0.0000000000E+00    0    0
   22    1    1    2    0    0    0.1378401183E-01    0.1794137061E-01   -0.1113024652E+00    0.1135787368E+00    0.0000000000E+00    0    0
   22    1    1    2    0    0    0.6562225521E-02    0.1128844824E-01    0.1141524129E-01    0.1734357513E-01    0.0000000000E+00    0    0
   22    1    1    2    0    0   -0.5378293281E-05   -0.9507895697E-06   -0.1254410669E-01    0.1254410762E-01    0.0000000000E+00    0    0
   15    2    3    3    0    0    0.7722328663E+01    0.2702971268E+02    0.2033168221E+02    0.3473865509E+02    0.1777029991E+01    0    0
  -16    1    3    3    0    0   -0.6163255692E+01   -0.3815500259E+02   -0.2511153793E+02    0.4609099197E+02    0.0000000000E+00    0    0
   22    1    3    3    0    0    0.1948950589E+00    0.2572898269E+00    0.3210694194E+00    0.4552665949E+00    0.0000000000E+00    0    0
   16    1    4    4    0    0    0.3717473984E+02    0.5330991149E+00   -0.3147606611E+01    0.3731156540E+02    0.0000000000E+00    0    0
  -15    2    4    4    0    0   -0.3894915390E+02    0.1030583954E+02    0.7474246502E+01    0.4101547241E+02    0.1777029991E+01    0    0
   16    1    9    9    0    0    0.1456934810E+01    0.5099258423E+01    0.3807624340E+01    0.6528635025E+01    0.0000000000E+00    0    0
  -24    2    9    9    0    0    0.6265696526E+01    0.2193151474E+02    0.1652485085E+02    0.2821138000E+02    0.1600455403E+01    0    0
 -211    1   15   15    0    0    0.1448354959E+01    0.5957284451E+01    0.4226115227E+01    0.7447581768E+01    0.1395679712E+00    0    0
 -211    1   15   15    0    0    0.4517636895E+00    0.1139957309E+01    0.8047843575E+00    0.1473345995E+01    0.1395680159E+00    0    0
 -211    1   15   15    0    0    0.1859162569E+01    0.6305583000E+01    0.5285275459E+01    0.8436258316E+01    0.1395678520E+00    0    0
  211    1   15   15    0    0    0.5968843102E+00    0.1980466127E+01    0.1352278233E+01    0.2475206852E+01    0.1395679861E+00    0    0
  211    1   15   15    0    0    0.8762239814E+00    0.2998428345E+01    0.2135578156E+01    0.3786622047E+01    0.1395679861E+00    0    0
  111    1   15   15    0    0    0.1033306599E+01    0.3549793720E+01    0.2720820665E+01    0.4592366219E+01    0.1349640042E+00    0    0
  -16    1   13   13    0    0   -0.2067568064E+01    0.5545307398E+00    0.6271954775E+00    0.2230631351E+01    0.0000000000E+00    0    0
   24    2   13   13    0    0   -0.3688311768E+02    0.9751713753E+01    0.6847344875E+01    0.3878645706E+02    0.1429239631E+01    0    0
  211    1   23   23    0    0   -0.6468079090E+01    0.1738968253E+01    0.1070279717E+01    0.6784175396E+01    0.1395679861E+00    0    0
  211    1   23   23    0    0   -0.7835758209E+01    0.2167523146E+01    0.1564345002E+01    0.8280333519E+01    0.1395679712E+00    0    0
 -211    1   23   23    0    0   -0.3033916712E+01    0.6672656536E+00    0.5647642016E+00    0.3160432339E+01    0.1395679861E+00    0    0
  111    1   23   23    0    0   -0.8313813210E+01    0.2229221582E+01    0.1852716684E+01    0.8805663109E+01    0.1349639595E+00    0    0
  111    1   23   23    0    0   -0.6042789936E+01    0.1691327929E+01    0.1040644169E+01    0.6362158298E+01    0.1349639893E+00    0    0
  111    1   23   23    0    0   -0.5188759804E+01    0.1257407546E+01    0.7545949221E+00    0.5393693447E+01    0.1349640191E+00    0    0
</event>
<event>
   16 9999    1    0.9119999695E+02    0.7565275169E-02    0.1185000000E+00
   11   -1    0    0    0    0    0.0000000000E+00    0.0000000000E+00    0.8000000000E+02    0.8000000000E+02    0.5109988851E-03    0    0
  -11   -1    0    0    0    0    0.0000000000E+00    0.0000000000E+00   -0.8000000000E+02    0.8000000000E+02    0.5109988851E-03    0    0
  -24    2    1    2    0    0   -0.1939336777E+01    0.7400381565E+01    0.9409822464E+01    0.8184869385E+02    0.8094527435E+02    0    0
   24    2    1    2    0    0    0.1939338446E+01   -0.7400386810E+01   -0.9442914963E+01    0.7811821747E+02    0.7716709137E+02    0    0
   22    1    1    2    0    0   -0.1686701353E-05    0.5472918019E-05    0.3309247270E-01    0.3309247270E-01    0.0000000000E+00    0    0
   15    2    3    3    0    0    0.2909214973E+02   -0.2146804810E+02    0.1483198929E+02    0.3912002182E+02    0.1777029991E+01    0    0
  -16    1    3    3    0    0   -0.3103148651E+02    0.2886842918E+02   -0.5422167301E+01    0.4272867203E+02    0.0000000000E+00    0    0
   16    1    4    4    0    0    0.1866669846E+02    0.2087151527E+02    0.1964268303E+02    0.3420380783E+02    0.0000000000E+00    0    0
  -15    2    4    4    0    0   -0.1608130836E+02   -0.2726409149E+02   -0.2796103287E+02    0.4227193832E+02    0.1777029991E+01    0    0
   22    1    4    4    0    0   -0.6460520029E+00   -0.1007808924E+01   -0.1124564528E+01    0.1642470002E+01    0.0000000000E+00    0    0
   16    1    6    6    0    0    0.1635490417E+02   -0.1304984283E+02    0.8658412933E+01    0.2264397049E+02    0.3976078588E-03    0    0
 -321    1    6    6    0    0    0.1273839283E+02   -0.8419052124E+01    0.6174161434E+01    0.1647759247E+02    0.4936669767E+00    0    0
  -16    1    9    9    0    0   -0.4029640198E+01   -0.7272573471E+01   -0.7224455357E+01    0.1101458549E+02    0.4315837214E-04    0    0
   24    2    9    9    0    0   -0.1205231953E+02   -0.1999262047E+02   -0.2073770714E+02    0.3125906181E+02    0.1453582525E+01    0    0
  321    1   14   14    0    0   -0.3619996071E+01   -0.5199611664E+01   -0.5630033016E+01    0.8490072250E+01    0.4936670661E+00    0    0
  130    1   14   14    0    0   -0.8432322502E+01   -0.1479300880E+02   -0.1510767555E+02    0.2276898766E+02    0.4977200329E+00    0    0
</event>
<event>
   21 9999    1    0.9119999695E+02    0.7565275169E-02    0.1185000000E+00
   11   -1    0    0    0    0    0.0000000000E+00    0.0000000000E+00    0.8000000000E+02    0.8000000000E+02    0.5109988851E-03    0    0
  -11   -1    0    0    0    0    0.0000000000E+00    0.0000000000E+00   -0.8000000000E+02    0.8000000000E+02    0.5109988851E-03    0    0
  -24    2    1    2    0    0    0.1332510829E+01    0.7732751369E+01    0.1779002190E+02    0.7835591888E+02    0.7590516663E+02    0    0
   24    2    1    2    0    0   -0.1332510948E+01   -0.7732753277E+01   -0.1776647758E+02    0.8162053680E+02    0.7927605438E+02    0    0
   22    1    1    2    0    0   -0.4304840218E-06    0.5903009992E-06   -0.1559086237E-01    0.1559086237E-01    0.0000000000E+00    0    0
   22    1    1    2    0    0    0.5589761258E-06    0.1171549798E-05   -0.7954220288E-02    0.7954220288E-02    0.0000000000E+00    0    0
   15    2    3    3    0    0   -0.4172219276E+01   -0.2725558043E+01    0.4676497650E+02    0.4706333160E+02    0.1777029991E+01    0    0
  -16    1    3    3    0    0    0.5504729748E+01    0.1045830917E+02   -0.2897495461E+02    0.3129259109E+02    0.0000000000E+00    0    0
   16    1    4    4    0    0   -0.1155559635E+02    0.3366690063E+02   -0.5510248542E+00    0.3559909821E+02    0.0000000000E+00    0    0
  -15    2    4    4    0    0    0.1022308540E+02   -0.4139965439E+02   -0.1721545219E+02    0.4602143478E+02    0.1777029991E+01    0    0
   16    1    7    7    0    0   -0.7759122550E-01   -0.2792927809E-01    0.2183901310E+01    0.2185457706E+01    0.3315057547E-03    0    0
  -24    2    7    7    0    0   -0.4094792366E+01   -0.2697736263E+01    0.4458291626E+02    0.4487972641E+02    0.1583702683E+01    0    0
  130    1   12   12    0    0   -0.2258454084E+01   -0.1478673816E+01    0.2712026978E+02    0.2725883102E+02    0.4977200329E+00    0    0
 -211    1   12   12    0    0   -0.2964822948E+00   -0.1403701901E+00    0.4379126549E+01    0.4393612862E+01    0.1395688057E+00    0    0
  130    1   12   12    0    0   -0.1539855242E+01   -0.1078691721E+01    0.1308351421E+02    0.1322727489E+02    0.4977200031E+00    0    0
  -16    1   10   10    0    0    0.4988784790E+01   -0.1927367973E+02   -0.8007841110E+01    0.2145899010E+02    0.1955567277E-03    0    0
   24    2   10   10    0    0    0.5234703541E+01   -0.2212760544E+02   -0.9208289146E+01    0.2456425858E+02    0.1255853891E+01    0    0
  111    1   17   17    0    0    0.7071866393E+00   -0.3543228388E+01   -0.1720563650E+01    0.4004139423E+01    0.1349635273E+00    0    0
  111    1   17   17    0    0    0.1003521085E+01   -0.4088413239E+01   -0.1419616461E+01    0.4444738865E+01    0.1349639595E+00    0    0
  111    1   17   17    0    0    0.5193092823E+00   -0.2384242535E+01   -0.1161164403E+01    0.2705699921E+01    0.1349639744E+00    0    0
  211    1   17   17    0    0    0.3004686594E+01   -0.1211172104E+02   -0.4906944752E+01    0.1340968037E+02    0.1395679712E+00    0    0
</event>
<event>
   21 9999    1    0.9119999695E+02    0.7565275169E-02    0.1185000000E+00
   11   -1    0    0    0    0    0.0000000000E+00    0.0000000000E+00    0.8000000000E+02    0.8000000000E+02    0.5109988851E-03    0    0
  -11   -1    0    0    0    0    0.0000000000E+00    0.0000000000E+00   -0.8000000000E+02    0.8000000000E+02    0.5109988851E-03    0    0
  -24    2    1    2    0    0    0.8904181480E+01   -0.8128684014E-02    0.3215569687E+02    0.7842653656E+02    0.7097498322E+02    0    0
   24    2    1    2    0    0   -0.8907518387E+01    0.8045882918E-02   -0.3220109558E+02    0.8152794647E+02    0.7436767578E+02    0    0
   22    1    1    2    0    0    0.3337468952E-02    0.8280072507E-04    0.4539785534E-01    0.4552044347E-01    0.0000000000E+00    0    0
   15    2    3    3    0    0    0.9266990423E+00    0.3036677170E+02    0.3559793854E+02    0.4683343506E+02    0.1777029991E+01    0    0
  -16    1    3    3    0    0    0.7977481842E+01   -0.3037490082E+02   -0.3442240953E+01    0.3159309769E+02    0.0000000000E+00    0    0
   16    1    4    4    0    0   -0.2108096695E+02    0.3221147156E+02   -0.2518236732E+02    0.4600149918E+02    0.0000000000E+00    0    0
  -15    2    4    4    0    0    0.1230038548E+02   -0.2983280754E+02   -0.6049370766E+01    0.3287930679E+02    0.1777029991E+01    0    0
   22    1    4    4    0    0    0.1618569195E+00   -0.3812116086E+00    0.2805259777E-02    0.4141592085E+00    0.0000000000E+00    0    0
   22    1    4    4    0    0   -0.2887940705E+00   -0.1989404798E+01   -0.9721643329E+00    0.2232988358E+01    0.0000000000E+00    0    0
   16    1    6    6    0    0    0.1965847239E-01    0.7057630271E-01    0.1024753377E+00    0.1259711236E+00    0.2413229522E-03    0    0
  -24    2    6    6    0    0    0.9070770741E+00    0.3029739189E+02    0.3549686432E+02    0.4670930862E+02    0.1725503445E+01    0    0
  221    1   13   13    0    0    0.1306627542E+00    0.1842357254E+02    0.2068535423E+02    0.2770614052E+02    0.5487999916E+00    0    0
 -211    1   13   13    0    0    0.5128536820E+00    0.6281290054E+01    0.7985756874E+01    0.1017395782E+02    0.1395679563E+00    0    0
  111    1   13   13    0    0    0.2635606825E+00    0.5592530251E+01    0.6825755596E+01    0.8829213142E+01    0.1349639744E+00    0    0
  -16    1    9    9    0    0    0.1737562537E+01   -0.4985573769E+01   -0.9673240781E+00    0.5367568016E+01    0.3497060097E-03    0    0
   24    2    9    9    0    0    0.1056330490E+02   -0.2484840584E+02   -0.5082284451E+01    0.2751302719E+02    0.1452707648E+01    0    0
  321    1   18   18    0    0    0.2476511240E+01   -0.5322205544E+01   -0.1176263571E+01    0.6007186890E+01    0.4936669767E+00    0    0
  111    1   18   18    0    0    0.1375715375E+01   -0.3035296917E+01   -0.7180527449E+00    0.3411661863E+01    0.1349637955E+00    0    0
  310    1   18   18    0    0    0.6711079597E+01   -0.1649090385E+02   -0.3187968016E+01    0.1809418106E+02    0.4977200329E+00    0    0
</event>
<event>
   24 9999    1    0.9119999695E+02    0.7565275169E-02    0.1185000000E+00
   11   -1    0    0    0    0    0.0000000000E+00    0.0000000000E+00    0.8000000000E+02    0.8000000000E+02    0.5109988851E-03    0    0
  -11   -1    0    0    0    0    0.0000000000E+00    0.0000000000E+00   -0.8000000000E+02    0.8000000000E+02    0.5109988851E-03    0    0
  -24    2    1    2    0    0   -0.1225438356E+01    0.3663265407E+00    0.2396206093E+02    0.7995588684E+02    0.7627009583E+02    0    0
   24    2    1    2    0    0    0.1208414793E+01   -0.4069443345E+00   -0.2332459068E+02    0.7940473175E+02    0.7589102936E+02    0    0
   22    1    1    2    0    0    0.1692717895E-01    0.4153484479E-01   -0.6214959025E+00    0.6231122017E+00    0.0000000000E+00    0    0
   22    1    1    2    0    0    0.9639201016E-04   -0.9170402191E-03   -0.1610859111E-01    0.1613496058E-01    0.0000000000E+00    0    0
   22    1    1    2    0    0    0.3581529295E-08   -0.3108519886E-08    0.1342267497E-03    0.1342267497E-03    0.0000000000E+00    0    0
   15    2    3    3    0    0    0.1411957836E+02    0.3530131149E+02    0.1034902000E+02    0.3944369507E+02    0.1777029991E+01    0    0
  -16    1    3    3    0    0   -0.1534501743E+02   -0.3493498611E+02    0.1361304092E+02    0.4051219177E+02    0.0000000000E+00    0    0
   16    1    4    4    0    0    0.1055159760E+02    0.1460410476E+01    0.2654471779E+02    0.2860229111E+02    0.0000000000E+00    0    0
  -15    2    4    4    0    0   -0.9343182564E+01   -0.1867354870E+01   -0.4986930847E+02    0.5080244064E+02    0.1777029991E+01    0    0
   16    1    8    8    0    0    0.5491546154E+01    0.1383268833E+02    0.4023672581E+01    0.1541720772E+02    0.2513072104E-03    0    0
  -24    2    8    8    0    0    0.8628588676E+01    0.2147001457E+02    0.6325755119E+01    0.2402804184E+02    0.1384774208E+01    0    0
  221    1   13   13    0    0    0.3506214142E+01    0.8164118767E+01    0.2702576399E+01    0.9303304672E+01    0.5487998724E+00    0    0
 -211    1   13   13    0    0    0.2962669373E+01    0.6900105476E+01    0.1927500844E+01    0.7753941059E+01    0.1395680606E+00    0    0
  111    1   13   13    0    0    0.2159705877E+01    0.6405791283E+01    0.1695678353E+01    0.6970798492E+01    0.1349639595E+00    0    0
  -16    1   11   11    0    0   -0.5394845605E+00   -0.2388874143E+00   -0.3108746290E+01    0.3164239883E+01    0.5285799489E-04    0    0
   24    2   11   11    0    0   -0.8804066658E+01   -0.1628541112E+01   -0.4676252747E+02    0.4764020157E+02    0.1640453935E+01    0    0
  211    1   18   18    0    0   -0.9180662632E+00    0.2359529771E-01   -0.3839371204E+01    0.3950145960E+01    0.1395680904E+00    0    0
  211    1   18   18    0    0   -0.1217215061E+01   -0.2121709734E+00   -0.7068455219E+01    0.7176988602E+01    0.1395680159E+00    0    0
 -211    1   18   18    0    0   -0.1051220179E+01   -0.1019825190E+00   -0.4560842514E+01    0.4683612823E+01    0.1395680308E+00    0    0
  111    1   18   18    0    0   -0.2252609968E+01   -0.3427844048E+00   -0.1214483833E+02    0.1235747051E+02    0.1349640340E+00    0    0
  111    1   18   18    0    0   -0.6784453988E+00   -0.2421287000E+00   -0.4439520359E+01    0.4499607563E+01    0.1349640340E+00    0    0
  111    1   18   18    0    0   -0.2686509609E+01   -0.7530697584E+00   -0.1470950031E+02    0.1497237682E+02    0.1349640638E+00    0    0
</event>
<event>
   14 9999    1    0.9119999695E+02    0.7565275169E-02    0.1185000000E+00
   11   -1    0    0    0    0    0.0000000000E+00    0.0000000000E+00    0.8000000000E+02    0.8000000000E+02    0.5109988851E-03    0    0
  -11   -1    0    0    0    0    0.0000000000E+00    0.0000000000E+00   -0.8000000000E+02    0.8000000000E+02    0.5109988851E-03    0    0
  -24    2    1    2    0    0   -0.6985005379E+01   -0.1488010406E+01   -0.1291585732E+02    0.8096910095E+02    0.7961263275E+02    0    0
   24    2    1    2    0    0    0.6985005379E+01    0.1488010406E+01    0.1291585732E+02    0.7903089905E+02    0.7764057159E+02    0    0
   15    2    3    3    0    0    0.5891994476E+01   -0.3252706528E+01    0.3275414276E+02    0.3348563004E+02    0.1777029991E+01    0    0
  -16    1    3    3    0    0   -0.1287699986E+02    0.1764696240E+01   -0.4566999817E+02    0.4748347092E+02    0.0000000000E+00    0    0
   16    1    4    4    0    0   -0.1238114548E+02    0.3061839104E+02   -0.1296534443E+02    0.3548068237E+02    0.0000000000E+00    0    0
  -15    2    4    4    0    0    0.1936614990E+02   -0.2913038063E+02    0.2588120270E+02    0.4355021667E+02    0.1777029991E+01    0    0
   16    1    5    5    0    0    0.5524612427E+01   -0.2996983051E+01    0.2906524086E+02    0.2973703766E+02    0.4139605735E-03    0    0
 -321    1    5    5    0    0    0.3676140904E+00   -0.2558516264E+00    0.3690193653E+01    0.3749911308E+01    0.4936669469E+00    0    0
  -16    1    8    8    0    0    0.1488305807E+01   -0.1922918558E+01    0.2240326881E+01    0.3306317329E+01    0.1726334885E-03    0    0
  213    2    8    8    0    0    0.1787860680E+02   -0.2720860863E+02    0.2364189339E+02    0.4024561310E+02    0.9040102959E+00    0    0
  211    1   12   12    0    0    0.1591616344E+02   -0.2376388168E+02    0.2085487938E+02    0.3539762497E+02    0.1395681947E+00    0    0
  111    1   12   12    0    0    0.1962443709E+01   -0.3444725752E+01    0.2787014246E+01    0.4847987652E+01    0.1349640340E+00    0    0
</event>
<event>
   20 9999    1    0.9119999695E+02    0.7565275169E-02    0.1185000000E+00
   11   -1    0    0    0    0    0.0000000000E+00    0.0000000000E+00    0.8000000000E+02    0.8000000000E+02    0.5109988851E-03    0    0
  -11   -1    0    0    0    0    0.0000000000E+00    0.0000000000E+00   -0.8000000000E+02    0.8000000000E+02    0.5109988851E-03    0    0
  -24    2    1    2    0    0   -0.8420752525E+01   -0.1017212200E+02    0.1057746220E+02    0.8122608948E+02    0.7944440460E+02    0    0
   24    2    1    2    0    0    0.8420764923E+01    0.1017213249E+02   -0.1057737732E+02    0.7877382660E+02    0.7693537903E+02    0    0
   22    1    1    2    0    0   -0.1175342004E-04   -0.1007636456E-04   -0.8457384683E-04    0.8597913256E-04    0.0000000000E+00    0    0
   15    2    3    3    0    0    0.2345088768E+02    0.2190161514E+02   -0.6687946320E+01    0.3282546616E+02    0.1777029991E+01    0    0
  -16    1    3    3    0    0   -0.3187163925E+02   -0.3207373810E+02    0.1726540756E+02    0.4840062332E+02    0.0000000000E+00    0    0
   16    1    4    4    0    0    0.2417364502E+02    0.3787540054E+02    0.6540495157E+00    0.4493705368E+02    0.0000000000E+00    0    0
  -15    2    4    4    0    0   -0.1575287914E+02   -0.2770326805E+02   -0.1123142719E+02    0.3383676910E+02    0.1777029991E+01    0    0
   16    1    6    6    0    0    0.1382813549E+02    0.1228012276E+02   -0.3550037384E+01    0.1883139801E+02    0.8631674427E-04    0    0
 -323    2    6    6    0    0    0.9623673439E+01    0.9622353554E+01   -0.3138171673E+01    0.1399536133E+02    0.9040067792E+00    0    0
 -211    1   11   11    0    0    0.3061690569E+01    0.3355622053E+01   -0.1258846998E+01    0.4715752602E+01    0.1395682245E+00    0    0
  310    1   11   11    0    0    0.6561984062E+01    0.6266732693E+01   -0.1879325032E+01    0.9279609680E+01    0.4977199733E+00    0    0
  -16    1    9    9    0    0    0.5835086107E-02   -0.2317246981E-02   -0.9931266308E-02    0.1174941659E-01    0.3236877819E-04    0    0
   24    2    9    9    0    0   -0.1575933456E+02   -0.2770203972E+02   -0.1122193718E+02    0.3382635117E+02    0.1590776920E+01    0    0
  211    1   15   15    0    0   -0.1994962692E+01   -0.3880074501E+01   -0.1348647237E+01    0.4568717957E+01    0.1395679116E+00    0    0
  211    1   15   15    0    0   -0.9163944125E+00   -0.1660524964E+01   -0.5389203429E+00    0.1976622462E+01    0.1395679861E+00    0    0
  211    1   15   15    0    0   -0.6064121246E+01   -0.1098162079E+02   -0.4562293530E+01    0.1334929085E+02    0.1395679861E+00    0    0
 -211    1   15   15    0    0   -0.2274033070E+01   -0.3426216602E+01   -0.1650659084E+01    0.4433321953E+01    0.1395678669E+00    0    0
 -211    1   15   15    0    0   -0.4509822369E+01   -0.7753602505E+01   -0.3121417284E+01    0.9498398781E+01    0.1395679712E+00    0    0
</event>
<event>
   25 9999    1    0.9119999695E+02    0.7565275169E-02    0.1185000000E+00
   11   -1    0    0    0    0    0.0000000000E+00    0.0000000000E+00    0.8000000000E+02    0.8000000000E+02    0.5109988851E-03    0    0
  -11   -1    0    0    0    0    0.0000000000E+00    0.0000000000E+00   -0.8000000000E+02    0.8000000000E+02    0.5109988851E-03    0    0
  -24    2    1    2    0    0   -0.3048344040E+02    0.3190207481E+01    0.1869019508E+02    0.7155883026E+02    0.6190254974E+02    0    0
   24    2    1    2    0    0    0.3048303604E+02   -0.3189642668E+01   -0.2092750168E+02    0.8620385742E+02    0.7780588531E+02    0    0
   22    1    1    2    0    0    0.4048887058E-03   -0.5648255465E-03    0.2237306833E+01    0.2237306833E+01    0.0000000000E+00    0    0
   15    2    3    3    0    0   -0.3616712952E+02   -0.2152634430E+02    0.1895909691E+02    0.4619577789E+02    0.1777029991E+01    0    0
  -16    1    3    3    0    0    0.5683687687E+01    0.2471655273E+02   -0.2689027786E+00    0.2536305428E+02    0.0000000000E+00    0    0
   16    1    4    4    0    0    0.1815585518E+02   -0.2531724739E+02    0.2072761345E+02    0.3741967392E+02    0.0000000000E+00    0    0
  -15    2    4    4    0    0    0.1232718086E+02    0.2212760353E+02   -0.4165511703E+02    0.4878418350E+02    0.1777029991E+01    0    0
   16    1    6    6    0    0   -0.2815540321E-01    0.5002435297E-02    0.1589189097E-01    0.3271550685E-01    0.1768802395E-04    0    0
  -24    2    6    6    0    0   -0.3614039612E+02   -0.2153219414E+02    0.1894395256E+02    0.4616488266E+02    0.1599764943E+01    0    0
 -211    1   11   11    0    0   -0.1919477820E+01   -0.1171779513E+01    0.8624314070E+00    0.2412618876E+01    0.1395680308E+00    0    0
 -211    1   11   11    0    0   -0.2954469919E+01   -0.1657549739E+01    0.1703405499E+01    0.3794394970E+01    0.1395679861E+00    0    0
 -211    1   11   11    0    0   -0.7254506588E+01   -0.4220956326E+01    0.3768245697E+01    0.9201276779E+01    0.1395680010E+00    0    0
  211    1   11   11    0    0   -0.7408431053E+01   -0.4272322178E+01    0.3730673552E+01    0.9331398010E+01    0.1395679861E+00    0    0
  211    1   11   11    0    0   -0.1381544399E+02   -0.8359007835E+01    0.7456929207E+01    0.1778664589E+02    0.1395679563E+00    0    0
  111    1   11   11    0    0   -0.2788068533E+01   -0.1850579500E+01    0.1422267079E+01    0.3638547659E+01    0.1349639744E+00    0    0
  -16    1    9    9    0    0    0.1686564088E+00    0.2368062437E+00   -0.3381852210E+00    0.4459724426E+00    0.2157918607E-04    0    0
   24    2    9    9    0    0    0.1215900898E+02    0.2189166832E+02   -0.4131856918E+02    0.4834013367E+02    0.1567662477E+01    0    0
  211    1   19   19    0    0    0.6148082018E+00    0.1359328508E+01   -0.2326349735E+01    0.2767154694E+01    0.1395680159E+00    0    0
  211    1   19   19    0    0    0.1469708443E+01    0.2471068621E+01   -0.4960237503E+01    0.5734950542E+01    0.1395680010E+00    0    0
  211    1   19   19    0    0    0.4330909252E+01    0.7480607986E+01   -0.1428545952E+02    0.1669760704E+02    0.1395680606E+00    0    0
 -211    1   19   19    0    0    0.1169170856E+01    0.2014168739E+01   -0.4237476826E+01    0.4837305546E+01    0.1395680457E+00    0    0
 -211    1   19   19    0    0    0.1874189854E+01    0.3716881037E+01   -0.6445514679E+01    0.7674108028E+01    0.1395680159E+00    0    0
  111    1   19   19    0    0    0.2700222731E+01    0.4849613667E+01   -0.9063532829E+01    0.1062900734E+02    0.1349640042E+00    0    0
</event>
<event>
   19 9999    1    0.9119999695E+02    0.7565275169E-02    0.1185000000E+00
   11   -1    0    0    0    0    0.0000000000E+00    0.0000000000E+00    0.8000000000E+02    0.8000000000E+02    0.5109988851E-03    0    0
  -11   -1    0    0    0    0    0.0000000000E+00    0.0000000000E+00   -0.8000000000E+02    0.8000000000E+02    0.5109988851E-03    0    0
  -24    2    1    2    0    0    0.8933058739E+01    0.9223277092E+01   -0.5411557674E+01    0.7893829346E+02    0.7769878387E+02    0    0
   24    2    1    2    0    0   -0.8937524796E+01   -0.9230991364E+01    0.5418711185E+01    0.8105027771E+02    0.7984168243E+02    0    0
   22    1    1    2    0    0    0.4466609564E-02    0.7714063395E-02   -0.7153593004E-02    0.1142940391E-01    0.0000000000E+00    0    0
   15    2    3    3    0    0    0.2716961670E+02    0.9033750534E+01    0.2849751854E+02    0.4043591309E+02    0.1777029991E+01    0    0
  -16    1    3    3    0    0   -0.1823655701E+02    0.1895264536E+00   -0.3390907669E+02    0.3850238037E+02    0.0000000000E+00    0    0
   16    1    4    4    0    0    0.1105437279E+02    0.2390002060E+02    0.2615356255E+02    0.3711359787E+02    0.0000000000E+00    0    0
  -15    2    4    4    0    0   -0.1999189758E+02   -0.3313101196E+02   -0.2073485184E+02    0.4393667984E+02    0.1777029991E+01    0    0
   16    1    6    6    0    0    0.5450121403E+01    0.1829736114E+01    0.6056173801E+01    0.8350389481E+01    0.1364787604E-03    0    0
  -24    2    6    6    0    0    0.2172056580E+02    0.7204370022E+01    0.2244246674E+02    0.3208711624E+02    0.1494271517E+01    0    0
  221    1   11   11    0    0    0.1653464699E+02    0.5686684132E+01    0.1706336975E+02    0.2443752670E+02    0.5488000512E+00    0    0
 -211    1   11   11    0    0    0.1949386716E+01    0.7866160274E+00    0.2331033945E+01    0.3141985416E+01    0.1395680308E+00    0    0
  111    1   11   11    0    0    0.3236531019E+01    0.7310698628E+00    0.3048061609E+01    0.4507603645E+01    0.1349640191E+00    0    0
  -16    1    9    9    0    0   -0.5792409897E+01   -0.1039035225E+02   -0.6559204578E+01    0.1358435154E+02    0.2200653835E-03    0    0
20213    2    9    9    0    0   -0.1420027542E+02   -0.2274196434E+02   -0.1417646408E+02    0.3035405922E+02    0.1245798230E+01    0    0
  111    1   16   16    0    0   -0.5885420799E+01   -0.9530187607E+01   -0.6174186230E+01    0.1279067802E+02    0.1349636763E+00    0    0
  111    1   16   16    0    0   -0.1393509030E+01   -0.2212812901E+01   -0.1678360343E+01    0.3110227823E+01    0.1349640340E+00    0    0
  211    1   16   16    0    0   -0.6921345711E+01   -0.1099896526E+02   -0.6323917866E+01    0.1445315456E+02    0.1395679563E+00    0    0
</event>
<event>
   22 9999    1    0.9119999695E+02    0.7565275169E-02    0.1185000000E+00
   11   -1    0    0    0    0    0.0000000000E+00    0.0000000000E+00    0.8000000000E+02    0.8000000000E+02    0.5109988851E-03    0    0
  -11   -1    0    0    0    0    0.0000000000E+00    0.0000000000E+00   -0.8000000000E+02    0.8000000000E+02    0.5109988851E-03    0    0
  -24    2    1    2    0    0    0.3764110565E+02    0.2435626507E+01    0.1117149925E+02    0.7500503540E+02    0.6386053467E+02    0    0
   24    2    1    2    0    0   -0.3764612961E+02   -0.2435049295E+01   -0.8049703598E+01    0.8187316132E+02    0.7221673584E+02    0    0
   22    1    1    2    0    0    0.5023441277E-02   -0.5772014847E-03   -0.3121796370E+01    0.3121800423E+01    0.0000000000E+00    0    0
   15    2    3    3    0    0    0.4725479126E+02   -0.1827250290E+02    0.3103899956E+01    0.5079066467E+02    0.1777029991E+01    0    0
  -16    1    3    3    0    0   -0.9613685608E+01    0.2070812988E+02    0.8067599297E+01    0.2421437073E+02    0.0000000000E+00    0    0
   16    1    4    4    0    0   -0.5010715961E+01   -0.7067498684E+01    0.3015957260E+02    0.3137923813E+02    0.0000000000E+00    0    0
  -15    2    4    4    0    0   -0.3263541412E+02    0.4632449150E+01   -0.3820927429E+02    0.5049392319E+02    0.1777029991E+01    0    0
   16    1    6    6    0    0    0.1018309712E+01   -0.5003676414E+00    0.6295765284E-02    0.1134619951E+01    0.6938975421E-03    0    0
  -24    2    6    6    0    0    0.4623833847E+02   -0.1777285385E+02    0.3097726345E+01    0.4965804291E+02    0.1570634842E+01    0    0
  310    1   11   11    0    0    0.1171592140E+02   -0.4627233028E+01    0.7417408228E+00    0.1262822247E+02    0.4977200031E+00    0    0
 -211    1   11   11    0    0    0.1378261662E+02   -0.4981910706E+01    0.6513746977E+00    0.1467050552E+02    0.1395682991E+00    0    0
  130    1   11   11    0    0    0.2073979950E+02   -0.8163710594E+01    0.1704610705E+01    0.2235931396E+02    0.4977199733E+00    0    0
  -16    1    9    9    0    0   -0.5936001778E+01    0.9369654655E+00   -0.7102016449E+01    0.9303368568E+01    0.4037096005E-04    0    0
   24    2    9    9    0    0   -0.2670069313E+02    0.3695665836E+01   -0.3110876274E+02    0.4119254303E+02    0.1576505065E+01    0    0
  211    1   16   16    0    0   -0.6663021564E+01    0.9048065543E+00   -0.7382939816E+01    0.9987082481E+01    0.1395679861E+00    0    0
  211    1   16   16    0    0   -0.6253494263E+01    0.1012475371E+01   -0.7144261837E+01    0.9549410820E+01    0.1395679712E+00    0    0
 -211    1   16   16    0    0   -0.6002423763E+00    0.1020580158E+00   -0.7691435814E+00    0.9908419847E+00    0.1395679116E+00    0    0
  111    1   16   16    0    0   -0.5324639320E+01    0.6076404452E+00   -0.6452503204E+01    0.8388922691E+01    0.1349639893E+00    0    0
  111    1   16   16    0    0   -0.4904689312E+01    0.6604397297E+00   -0.6085794449E+01    0.7845206261E+01    0.1349638999E+00    0    0
  111    1   16   16    0    0   -0.2954607487E+01    0.4082458317E+00   -0.3274119139E+01    0.4431077003E+01    0.1349639744E+00    0    0
</event>
<event>
   21 9999    1    0.9119999695E+02    0.7565275169E-02    0.1185000000E+00
   11   -1    0    0    0    0    0.0000000000E+00    0.0000000000E+00    0.8000000000E+02    0.8000000000E+02    0.5109988851E-03    0    0
  -11   -1    0    0    0    0    0.0000000000E+00    0.0000000000E+00   -0.8000000000E+02    0.8000000000E+02    0.5109988851E-03    0    0
  -24    2    1    2    0    0    0.2184232903E+02    0.8416020393E+01    0.1020176125E+02    0.7262799835E+02    0.6799142456E+02    0    0
   24    2    1    2    0    0   -0.2184232712E+02   -0.8416031837E+01   -0.1020203114E+02    0.8737173462E+02    0.8355729675E+02    0    0
   22    1    1    2    0    0   -0.3272885579E-05    0.1147130206E-04    0.2695141593E-03    0.2697780437E-03    0.0000000000E+00    0    0
   15    2    3    3    0    0    0.2554381752E+02    0.3388897324E+02    0.1739900970E+02    0.4590024567E+02    0.1777029991E+01    0    0
  -16    1    3    3    0    0   -0.3701488495E+01   -0.2547295189E+02   -0.7197248459E+01    0.2672775269E+02    0.0000000000E+00    0    0
   16    1    4    4    0    0    0.6777374148E+00   -0.5273309231E+01    0.3571163940E+02    0.3610523987E+02    0.0000000000E+00    0    0
  -15    2    4    4    0    0   -0.2252006340E+02   -0.3142723083E+01   -0.4591367340E+02    0.5126649094E+02    0.1777029991E+01    0    0
   16    1    6    6    0    0    0.2217336416E+01    0.2764587879E+01    0.1184112430E+01    0.3736529112E+01    0.3506202775E-03    0    0
  -24    2    6    6    0    0    0.2332748604E+02    0.3112571907E+02    0.1621558189E+02    0.4216552353E+02    0.1415687680E+01    0    0
 -211    1   11   11    0    0    0.5527910233E+01    0.7137715816E+01    0.3628968954E+01    0.9731067657E+01    0.1395678669E+00    0    0
  130    1   11   11    0    0    0.1329174614E+02    0.1722302055E+02    0.9043758392E+01    0.2356565857E+02    0.4977201819E+00    0    0
  111    1   11   11    0    0    0.4507829189E+01    0.6764982224E+01    0.3542854071E+01    0.8868795395E+01    0.1349639446E+00    0    0
  -16    1    9    9    0    0   -0.5820398331E+01   -0.7304160595E+00   -0.1140962124E+02    0.1282926369E+02    0.8631674427E-04    0    0
   24    2    9    9    0    0   -0.1670055008E+02   -0.2412430525E+01   -0.3450585556E+02    0.3843924332E+02    0.1480910301E+01    0    0
  211    1   16   16    0    0   -0.4868460655E+01   -0.9227541089E+00   -0.1033221722E+02    0.1145982456E+02    0.1395678818E+00    0    0
  211    1   16   16    0    0   -0.1057861805E+01   -0.1949131787E+00   -0.2397783279E+01    0.2631711960E+01    0.1395679563E+00    0    0
  211    1   16   16    0    0   -0.7602129936E+01   -0.9923287630E+00   -0.1508825970E+02    0.1692489815E+02    0.1395678967E+00    0    0
 -211    1   16   16    0    0   -0.4932768345E+00   -0.1496638358E+00   -0.1093337178E+01    0.1216793537E+01    0.1395679116E+00    0    0
 -211    1   16   16    0    0   -0.2678821564E+01   -0.1527707577E+00   -0.5594258308E+01    0.6206015587E+01    0.1395679563E+00    0    0
</event>
<event>
   20 9999    1    0.9119999695E+02    0.7565275169E-02    0.1185000000E+00
   11   -1    0    0    0    0    0.0000000000E+00    0.0000000000E+00    0.8000000000E+02    0.8000000000E+02    0.5109988851E-03    0    0
  -11   -1    0    0    0    0    0.0000000000E+00    0.0000000000E+00   -0.8000000000E+02    0.8000000000E+02    0.5109988851E-03    0    0
  -24    2    1    2    0    0    0.1736194038E+02    0.5015072823E+01   -0.2779190838E+00    0.7663469696E+02    0.7447289276E+02    0    0
   24    2    1    2    0    0   -0.1710770226E+02   -0.4584216118E+01   -0.6484183073E+00    0.8231043243E+02    0.8037971497E+02    0    0
   22    1    1    2    0    0   -0.2542371452E+00   -0.4308556318E+00    0.9274387956E+00    0.1053762674E+01    0.0000000000E+00    0    0
   22    1    1    2    0    0   -0.9640774579E-06   -0.1100706982E-05   -0.1101437258E-02    0.1101438189E-02    0.0000000000E+00    0    0
   15    2    3    3    0    0    0.1098811436E+02    0.2650406265E+02    0.2828392410E+02    0.4032793427E+02    0.1777029991E+01    0    0
  -16    1    3    3    0    0    0.6373825550E+01   -0.2148899078E+02   -0.2856184387E+02    0.3630676651E+02    0.0000000000E+00    0    0
   16    1    4    4    0    0   -0.3986059904E+01   -0.3970130539E+02   -0.1428247738E+02    0.4238008499E+02    0.0000000000E+00    0    0
  -15    2    4    4    0    0   -0.1312164211E+02    0.3511709213E+02    0.1363405895E+02    0.3993035126E+02    0.1777029991E+01    0    0
   16    1    7    7    0    0    0.1568214297E+01    0.4362294674E+01    0.4883531570E+01    0.6733334541E+01    0.5964605953E-03    0    0
  -24    2    7    7    0    0    0.9420331955E+01    0.2214281082E+02    0.2340150452E+02    0.3359618378E+02    0.1423549652E+01    0    0
 -211    1   12   12    0    0    0.3660367966E+01    0.8522789001E+01    0.8897236824E+01    0.1285365772E+02    0.1395677328E+00    0    0
 -211    1   12   12    0    0    0.2363459587E+01    0.5298264503E+01    0.5207920074E+01    0.7797400475E+01    0.1395680159E+00    0    0
  211    1   12   12    0    0    0.3506604731E+00    0.1021754861E+01    0.9988245368E+00    0.1477861762E+01    0.1395680159E+00    0    0
  111    1   12   12    0    0    0.1406451344E+01    0.3254126310E+01    0.3708026409E+01    0.5131775379E+01    0.1349639893E+00    0    0
  111    1   12   12    0    0    0.1639392376E+01    0.4045875549E+01    0.4589496613E+01    0.6335487843E+01    0.1349639595E+00    0    0
  -16    1   10   10    0    0   -0.2498737097E+01    0.6302629948E+01    0.3017634392E+01    0.7421114922E+01    0.0000000000E+00    0    0
  -13    1   10   10    0    0   -0.6781385422E+01    0.1777454567E+02    0.7037200451E+01    0.2028435516E+02    0.1056590155E+00    0    0
   14    1   10   10    0    0   -0.3842035770E+01    0.1104129696E+02    0.3579760313E+01    0.1222645283E+02    0.1726334885E-03    0    0
</event>
<event>
   20 9999    1    0.9119999695E+02    0.7565275169E-02    0.1185000000E+00
   11   -1    0    0    0    0    0.0000000000E+00    0.0000000000E+00    0.8000000000E+02    0.8000000000E+02    0.5109988851E-03    0    0
  -11   -1    0    0    0    0    0.0000000000E+00    0.0000000000E+00   -0.8000000000E+02    0.8000000000E+02    0.5109988851E-03    0    0
  -24    2    1    2    0    0    0.1183187485E+02   -0.5842844009E+01    0.1312438297E+02    0.7675750732E+02    0.7446699524E+02    0    0
   24    2    1    2    0    0   -0.1183187675E+02    0.5842843533E+01   -0.1312215328E+02    0.8324025726E+02    0.8113333130E+02    0    0
   22    1    1    2    0    0    0.2105589147E-05    0.4695468192E-06   -0.2229693346E-02    0.2229694510E-02    0.0000000000E+00    0    0
   15    2    3    3    0    0   -0.1530480194E+02   -0.5340788364E+01    0.3711107254E+02    0.4053579330E+02    0.1777029991E+01    0    0
  -16    1    3    3    0    0    0.2713667679E+02   -0.5020556450E+00   -0.2398669052E+02    0.3622171402E+02    0.0000000000E+00    0    0
   16    1    4    4    0    0   -0.2721652603E+02    0.3238941956E+02    0.1152084351E+02    0.4384682083E+02    0.0000000000E+00    0    0
  -15    2    4    4    0    0    0.1538464832E+02   -0.2654657555E+02   -0.2464299583E+02    0.3939344025E+02    0.1777029991E+01    0    0
   16    1    6    6    0    0   -0.6917634964E+01   -0.2129454851E+01    0.1645388412E+02    0.1797550011E+02    0.4411874979E-03    0    0
  -24    2    6    6    0    0   -0.8387768745E+01   -0.3211543322E+01    0.2065864944E+02    0.2256188965E+02    0.1261112094E+01    0    0
  111    1   11   11    0    0   -0.1948405862E+01   -0.8047252893E+00    0.5617055893E+01    0.6001116753E+01    0.1349637955E+00    0    0
  111    1   11   11    0    0   -0.4458097219E+00   -0.1764325351E+00    0.1413852453E+01    0.1499022603E+01    0.1349640638E+00    0    0
 -321    1   11   11    0    0   -0.5993553162E+01   -0.2230385542E+01    0.1362774086E+02    0.1506175041E+02    0.4936670363E+00    0    0
  -16    1    9    9    0    0    0.5045191050E+00   -0.1111431599E+01   -0.1204988360E+01    0.1715172410E+01    0.1057159898E-03    0    0
   24    2    9    9    0    0    0.1488073540E+02   -0.2543618965E+02   -0.2343897820E+02    0.3767982101E+02    0.1395383716E+01    0    0
  111    1   16   16    0    0    0.1172177672E+01   -0.2421566725E+01   -0.2290409088E+01    0.3535841465E+01    0.1349636763E+00    0    0
  111    1   16   16    0    0    0.2008367062E+01   -0.2918443918E+01   -0.2707900286E+01    0.4461142540E+01    0.1349641532E+00    0    0
  111    1   16   16    0    0    0.5472893238E+01   -0.9697227478E+01   -0.9027783394E+01    0.1433554554E+02    0.1349638849E+00    0    0
  211    1   16   16    0    0    0.6227296829E+01   -0.1039894962E+02   -0.9412884712E+01    0.1534728813E+02    0.1395680457E+00    0    0
</event>
<event>
   22 9999    1    0.9119999695E+02    0.7565275169E-02    0.1185000000E+00
   11   -1    0    0    0    0    0.0000000000E+00    0.0000000000E+00    0.8000000000E+02    0.8000000000E+02    0.5109988851E-03    0    0
  -11   -1    0    0    0    0    0.0000000000E+00    0.0000000000E+00   -0.8000000000E+02    0.8000000000E+02    0.5109988851E-03    0    0
  -24    2    1    2    0    0   -0.4113160133E+01    0.5463316441E+01    0.5123110580E+02    0.9632215118E+02    0.8128077698E+02    0    0
   24    2    1    2    0    0    0.4113163948E+01   -0.5463317394E+01   -0.5122459793E+02    0.6367134094E+02    0.3719293213E+02    0    0
   22    1    1    2    0    0   -0.3694548695E-05    0.1317683768E-05   -0.6509137340E-02    0.6509138271E-02    0.0000000000E+00    0    0
   15    2    3    3    0    0   -0.1312218475E+02    0.3832969666E+02    0.4684959030E+02    0.6196288681E+02    0.1777029991E+01    0    0
  -16    1    3    3    0    0    0.9009024620E+01   -0.3286637878E+02    0.4381515980E+01    0.3435926437E+02    0.0000000000E+00    0    0
   16    1    4    4    0    0    0.1792226219E+02    0.1652611136E+01   -0.1251134777E+02    0.2191968155E+02    0.0000000000E+00    0    0
  -15    2    4    4    0    0   -0.1380909729E+02   -0.7115928650E+01   -0.3871324921E+02    0.4175165939E+02    0.1777029991E+01    0    0
   16    1    6    6    0    0   -0.1757863522E+01    0.4879301548E+01    0.6175348282E+01    0.8064278603E+01    0.3051757812E-04    0    0
  -24    2    6    6    0    0   -0.1136483765E+02    0.3345190048E+02    0.4067608261E+02    0.5390104294E+02    0.1609177709E+01    0    0
 -211    1   11   11    0    0   -0.9628236294E+00    0.3175173283E+01    0.3834812403E+01    0.5072871208E+01    0.1395679861E+00    0    0
 -211    1   11   11    0    0   -0.5829320431E+01    0.1761730957E+02    0.2136264229E+02    0.2829721832E+02    0.1395679116E+00    0    0
  211    1   11   11    0    0   -0.1598529220E+01    0.4703129768E+01    0.5518252373E+01    0.7425989151E+01    0.1395680159E+00    0    0
  111    1   11   11    0    0   -0.7477853894E+00    0.2106844664E+01    0.2704373121E+01    0.3511385202E+01    0.1349639893E+00    0    0
  111    1   11   11    0    0   -0.1643051982E+01    0.4650163651E+01    0.5797326565E+01    0.7612545967E+01    0.1349639893E+00    0    0
  111    1   11   11    0    0   -0.5833269954E+00    0.1199281454E+01    0.1458678365E+01    0.1981036186E+01    0.1349639446E+00    0    0
  -16    1    9    9    0    0   -0.3607387543E+01   -0.1338397622E+01   -0.9482060432E+01    0.1023298645E+02    0.5948971375E-03    0    0
   24    2    9    9    0    0   -0.1020225239E+02   -0.5777810574E+01   -0.2923270988E+02    0.3152031326E+02    0.1228732109E+01    0    0
  211    1   19   19    0    0   -0.4312855721E+01   -0.2178926945E+01   -0.1259384823E+02    0.1348973465E+02    0.1395679116E+00    0    0
  111    1   19   19    0    0   -0.4016242027E+01   -0.2257401466E+01   -0.1189644814E+02    0.1275812531E+02    0.1349642575E+00    0    0
   22    1   19   19    0    0   -0.1873154879E+01   -0.1341482043E+01   -0.4742413521E+01    0.5272453785E+01    0.1220703125E-03    0    0
</event>
<event>
   19 9999    1    0.9119999695E+02    0.7565275169E-02    0.1185000000E+00
   11   -1    0    0    0    0    0.0000000000E+00    0.0000000000E+00    0.8000000000E+02    0.8000000000E+02    0.5109988851E-03    0    0
  -11   -1    0    0    0    0    0.0000000000E+00    0.0000000000E+00   -0.8000000000E+02    0.8000000000E+02    0.5109988851E-03    0    0
  -24    2    1    2    0    0    0.8017764091E+01    0.1103804970E+02    0.1110589266E+01    0.8101041412E+02    0.7984567261E+02    0    0
   24    2    1    2    0    0   -0.8017762184E+01   -0.1103804493E+02   -0.1105065346E+01    0.7898378754E+02    0.7778878021E+02    0    0
   22    1    1    2    0    0   -0.2009247510E-05   -0.4701600574E-05   -0.5661734380E-02    0.5661736708E-02    0.0000000000E+00    0    0
   22    1    1    2    0    0    0.9559810721E-08    0.6753382298E-08    0.1378026645E-03    0.1378026645E-03    0.0000000000E+00    0    0
   15    2    3    3    0    0    0.2794675064E+02   -0.2113635445E+02   -0.1707786179E+02    0.3902022171E+02    0.1777029991E+01    0    0
  -16    1    3    3    0    0   -0.1992898560E+02    0.3217440414E+02    0.1818845177E+02    0.4199019623E+02    0.0000000000E+00    0    0
   16    1    4    4    0    0    0.1062562943E+02    0.2823878288E+02    0.1354208469E+02    0.3307145309E+02    0.0000000000E+00    0    0
  -15    2    4    4    0    0   -0.1864339256E+02   -0.3927682877E+02   -0.1464715004E+02    0.4591233063E+02    0.1777029991E+01    0    0
   16    1    7    7    0    0    0.3724847078E+01   -0.3092220306E+01   -0.1969305873E+01    0.5226325512E+01    0.1220703125E-03    0    0
  -24    2    7    7    0    0    0.2422300148E+02   -0.1804496574E+02   -0.1510922718E+02    0.3379542923E+02    0.1211454749E+01    0    0
 -321    1   12   12    0    0    0.1346995449E+02   -0.9608291626E+01   -0.8240479469E+01    0.1849075890E+02    0.4936670065E+00    0    0
  310    1   12   12    0    0    0.1075304699E+02   -0.8436673164E+01   -0.6868747711E+01    0.1530466938E+02    0.4977200627E+00    0    0
  -16    1   10   10    0    0   -0.7790910602E+00   -0.1264986038E+01   -0.6228824854E+00    0.1610948443E+01    0.2958789119E-03    0    0
   24    2   10   10    0    0   -0.1786503410E+02   -0.3801338959E+02   -0.1402484417E+02    0.4430319214E+02    0.1378121495E+01    0    0
  111    1   16   16    0    0   -0.4460935891E+00   -0.1209838390E+01   -0.4427036643E+00    0.1370003819E+01    0.1349643022E+00    0    0
  111    1   16   16    0    0   -0.7582755089E+01   -0.1529164696E+02   -0.5689624786E+01    0.1799229622E+02    0.1349636614E+00    0    0
  321    1   16   16    0    0   -0.9836186409E+01   -0.2151190567E+02   -0.7892516136E+01    0.2494089317E+02    0.4936670065E+00    0    0
</event>
<event>
   20 9999    1    0.9119999695E+02    0.7565275169E-02    0.1185000000E+00
   11   -1    0    0    0    0    0.0000000000E+00    0.0000000000E+00    0.8000000000E+02    0.8000000000E+02    0.5109988851E-03    0    0
  -11   -1    0    0    0    0    0.0000000000E+00    0.0000000000E+00   -0.8000000000E+02    0.8000000000E+02    0.5109988851E-03    0    0
  -24    2    1    2    0    0    0.1730488396E+02   -0.2398610306E+02    0.4347015381E+02    0.6398856354E+02    0.3647039795E+02    0    0
   24    2    1    2    0    0   -0.1730496025E+02    0.2398612022E+02   -0.4291372681E+02    0.9545500946E+02    0.7997046661E+02    0    0
   22    1    1    2    0    0    0.7515494508E-04   -0.1780326966E-04   -0.5564255118E+00    0.5564255118E+00    0.0000000000E+00    0    0
   15    2    3    3    0    0    0.2280848885E+02   -0.2559790230E+02    0.4626296997E+02    0.5760989380E+02    0.1777029991E+01    0    0
  -16    1    3    3    0    0   -0.5503603935E+01    0.1611799717E+01   -0.2792819023E+01    0.6378666878E+01    0.0000000000E+00    0    0
   16    1    4    4    0    0    0.8605208397E+00    0.1044048023E+02    0.2321434402E+02    0.2546860504E+02    0.0000000000E+00    0    0
  -15    2    4    4    0    0   -0.1791452217E+02    0.1269620609E+02   -0.6339493179E+02    0.6711332703E+02    0.1777029991E+01    0    0
   22    1    4    4    0    0   -0.2509598434E+00    0.8494331837E+00   -0.2733138561E+01    0.2873075724E+01    0.0000000000E+00    0    0
   16    1    6    6    0    0    0.5558324337E+01   -0.6345798969E+01    0.1190710163E+02    0.1459257412E+02    0.4567452997E-03    0    0
  -24    2    6    6    0    0    0.1725106049E+02   -0.1925311089E+02    0.3435768890E+02    0.4301958847E+02    0.1397422075E+01    0    0
  221    1   12   12    0    0    0.6229360104E+01   -0.6764351368E+01    0.1281777287E+02    0.1578473473E+02    0.5487999916E+00    0    0
 -211    1   12   12    0    0    0.2984816551E+01   -0.3133198261E+01    0.5802617073E+01    0.7239882946E+01    0.1395680308E+00    0    0
  111    1   12   12    0    0    0.8036886215E+01   -0.9355562210E+01    0.1573730183E+02    0.1999497414E+02    0.1349640638E+00    0    0
  -16    1    9    9    0    0   -0.4580455303E+01    0.3366758347E+01   -0.1576899338E+02    0.1676236153E+02    0.6738099037E-03    0    0
   24    2    9    9    0    0   -0.1333479595E+02    0.9329965591E+01   -0.4762852097E+02    0.5035370255E+02    0.1467703819E+01    0    0
  321    1   17   17    0    0   -0.6822947502E+01    0.4684207439E+01   -0.2436142731E+02    0.2573358345E+02    0.4936670661E+00    0    0
  211    1   17   17    0    0   -0.2523735285E+01    0.1728135228E+01   -0.8015657425E+01    0.8580555916E+01    0.1395680755E+00    0    0
 -321    1   17   17    0    0   -0.3988114119E+01    0.2917621851E+01   -0.1525143528E+02    0.1603956223E+02    0.4936669767E+00    0    0
</event>
<event>
   24 9999    1    0.9119999695E+02    0.7565275169E-02    0.1185000000E+00
   11   -1    0    0    0    0    0.0000000000E+00    0.0000000000E+00    0.8000000000E+02    0.8000000000E+02    0.5109988851E-03    0    0
  -11   -1    0    0    0    0    0.0000000000E+00    0.0000000000E+00   -0.8000000000E+02    0.8000000000E+02    0.5109988851E-03    0    0
  -24    2    1    2    0    0   -0.1011657047E+02   -0.2310343027E+01    0.2423334885E+02    0.8385578156E+02    0.7960436249E+02    0    0
   24    2    1    2    0    0    0.1011663723E+02    0.2310738325E+01   -0.2412245750E+02    0.7560475159E+02    0.7089781189E+02    0    0
   22    1    1    2    0    0   -0.9659581337E-05    0.7335131158E-05   -0.3174270689E+00    0.3174270689E+00    0.0000000000E+00    0    0
   22    1    1    2    0    0   -0.1536341151E-03   -0.2791080624E-03    0.2119685858E+00    0.2119688243E+00    0.0000000000E+00    0    0
   22    1    1    2    0    0   -0.1152610730E-04   -0.2568202945E-04   -0.7748187985E-02    0.7748239208E-02    0.0000000000E+00    0    0
   22    1    1    2    0    0    0.8622318273E-04   -0.9037898417E-04    0.1974117244E-02    0.1978065353E-02    0.0000000000E+00    0    0
   22    1    1    2    0    0    0.2219567068E-04   -0.7411472325E-05    0.3404876916E-03    0.3412908700E-03    0.0000000000E+00    0    0
   15    2    3    3    0    0   -0.1563647556E+02    0.1343666649E+02    0.4945742035E+02    0.5361191559E+02    0.1777029991E+01    0    0
  -16    1    3    3    0    0    0.5519904137E+01   -0.1574700928E+02   -0.2522407150E+02    0.3024386597E+02    0.0000000000E+00    0    0
   16    1    4    4    0    0    0.2609100342E+02   -0.1667135811E+02   -0.3646583557E+02    0.4783755875E+02    0.0000000000E+00    0    0
  -15    2    4    4    0    0   -0.1597436619E+02    0.1898209572E+02    0.1234337902E+02    0.2776719666E+02    0.1777029991E+01    0    0
   16    1   10   10    0    0   -0.4212177277E+01    0.3803964138E+01    0.1404377270E+02    0.1514728165E+02    0.2242574847E-03    0    0
  -24    2   10   10    0    0   -0.1142491436E+02    0.9633231163E+01    0.3541559601E+02    0.3846674728E+02    0.1448589921E+01    0    0
  111    1   15   15    0    0   -0.1629353404E+01    0.9860733151E+00    0.4849267960E+01    0.5211597443E+01    0.1349630356E+00    0    0
  111    1   15   15    0    0   -0.5897940636E+01    0.5150967598E+01    0.1919332695E+02    0.2072969437E+02    0.1349641085E+00    0    0
  111    1   15   15    0    0   -0.1021364689E+01    0.8928740025E+00    0.3137332201E+01    0.3420742273E+01    0.1349639893E+00    0    0
 -211    1   15   15    0    0   -0.2876255035E+01    0.2603316069E+01    0.8235667229E+01    0.9104713440E+01    0.1395680606E+00    0    0
  -16    1   13   13    0    0   -0.2941321611E+01    0.3415078402E+01    0.2401548624E+01    0.5107011795E+01    0.5964605953E-03    0    0
   24    2   13   13    0    0   -0.1303367329E+02    0.1556776428E+02    0.9942316055E+01    0.2266127586E+02    0.1565853834E+01    0    0
  310    1   21   21    0    0   -0.5043438911E+01    0.6174807549E+01    0.4203420639E+01    0.9026682854E+01    0.4977199435E+00    0    0
  211    1   21   21    0    0   -0.4848274708E+01    0.6004741192E+01    0.3684902668E+01    0.8553400993E+01    0.1395676732E+00    0    0
  130    1   21   21    0    0   -0.3141959667E+01    0.3388216734E+01    0.2053992748E+01    0.5081194401E+01    0.4977200925E+00    0    0
</event>
<event>
   24 9999    1    0.9119999695E+02    0.7565275169E-02    0.1185000000E+00
   11   -1    0    0    0    0    0.0000000000E+00    0.0000000000E+00    0.8000000000E+02    0.8000000000E+02    0.5109988851E-03    0    0
  -11   -1    0    0    0    0    0.0000000000E+00    0.0000000000E+00   -0.8000000000E+02    0.8000000000E+02    0.5109988851E-03    0    0
  -24    2    1    2    0    0    0.1092813587E+02   -0.1574788189E+02    0.2342540359E+02    0.7592229462E+02    0.6962776184E+02    0    0
   24    2    1    2    0    0   -0.1092791271E+02    0.1575610542E+02   -0.2327981949E+02    0.8391603088E+02    0.7830885315E+02    0    0
   22    1    1    2    0    0   -0.1416214072E-03   -0.8354167454E-02   -0.1535130739E+00    0.1537402868E+00    0.0000000000E+00    0    0
   22    1    1    2    0    0   -0.8114094817E-04    0.1314012916E-03    0.7929093204E-02    0.7930596359E-02    0.0000000000E+00    0    0
   15    2    3    3    0    0   -0.1879868126E+02   -0.1839500618E+02    0.3508177567E+02    0.4388228989E+02    0.1777029991E+01    0    0
  -16    1    3    3    0    0    0.2972681618E+02    0.2647124052E+01   -0.1165637207E+02    0.3204000473E+02    0.0000000000E+00    0    0
   16    1    4    4    0    0   -0.2589733505E+02   -0.2433638954E+02   -0.2042272568E+02    0.4098804092E+02    0.0000000000E+00    0    0
  -15    2    4    4    0    0    0.1496942139E+02    0.4009249496E+02   -0.2857093811E+01    0.4292798996E+02    0.1777029991E+01    0    0
   16    1    7    7    0    0   -0.4616902351E+01   -0.3955967665E+01    0.8033102989E+01    0.1007453346E+02    0.4766998172E-03    0    0
  -24    2    7    7    0    0   -0.1418251801E+02   -0.1443976212E+02    0.2705005264E+02    0.3380948639E+02    0.1313523889E+01    0    0
 -211    1   12   12    0    0   -0.2443673849E+01   -0.2351590872E+01    0.4272924900E+01    0.5457003593E+01    0.1395679116E+00    0    0
 -211    1   12   12    0    0   -0.5327246666E+01   -0.5026980400E+01    0.9790148735E+01    0.1222769737E+02    0.1395680904E+00    0    0
  211    1   12   12    0    0   -0.3452774048E+01   -0.3901365042E+01    0.7102067947E+01    0.8809150696E+01    0.1395680457E+00    0    0
  111    1   12   12    0    0   -0.1922622323E+01   -0.1865533352E+01    0.3617408514E+01    0.4503393173E+01    0.1349640191E+00    0    0
  111    1   12   12    0    0   -0.1036201596E+01   -0.1294293046E+01    0.2267503977E+01    0.2812240601E+01    0.1349637657E+00    0    0
  -16    1   10   10    0    0    0.1420186281E+01    0.3162271738E+01   -0.2948152721E+00    0.3479052782E+01    0.6473755639E-04    0    0
   24    2   10   10    0    0    0.1354982471E+02    0.3693180084E+02   -0.2562391043E+01    0.3945063019E+02    0.1493533492E+01    0    0
  211    1   19   19    0    0    0.8975151181E+00    0.2568152189E+01   -0.1722218394E+00    0.2729483128E+01    0.1395680159E+00    0    0
  211    1   19   19    0    0    0.6533136964E+00    0.2271110535E+01   -0.8582330495E-01    0.2368882895E+01    0.1395680308E+00    0    0
  211    1   19   19    0    0    0.1176497102E+01    0.3693127871E+01   -0.3859218955E+00    0.3897660017E+01    0.1395679712E+00    0    0
 -211    1   19   19    0    0    0.8068075180E+01    0.2124764252E+02   -0.1345061302E+01    0.2276806641E+02    0.1395679861E+00    0    0
 -211    1   19   19    0    0    0.2754423380E+01    0.7151765823E+01   -0.5733626485E+00    0.7686535358E+01    0.1395680159E+00    0    0
</event>
<event>
   21 9999    1    0.9119999695E+02    0.7565275169E-02    0.1185000000E+00
   11   -1    0    0    0    0    0.0000000000E+00    0.0000000000E+00    0.8000000000E+02    0.8000000000E+02    0.5109988851E-03    0    0
  -11   -1    0    0    0    0    0.0000000000E+00    0.0000000000E+00   -0.8000000000E+02    0.8000000000E+02    0.5109988851E-03    0    0
  -24    2    1    2    0    0   -0.3506964684E+01    0.5811731339E+01    0.8034450531E+01    0.7937138367E+02    0.7867140198E+02    0    0
   24    2    1    2    0    0    0.3506964684E+01   -0.5811731339E+01   -0.8034450531E+01    0.8062861633E+02    0.7993963623E+02    0    0
   15    2    3    3    0    0    0.1634747124E+02    0.3050916862E+02   -0.1735993385E+02    0.3876305389E+02    0.1777029991E+01    0    0
  -16    1    3    3    0    0   -0.1985443497E+02   -0.2469743729E+02    0.2539438629E+02    0.4060833359E+02    0.0000000000E+00    0    0
   16    1    4    4    0    0   -0.3621539307E+02   -0.1309586525E+02    0.3283818722E+01    0.3865022278E+02    0.0000000000E+00    0    0
  -15    2    4    4    0    0    0.3972235489E+02    0.7284133434E+01   -0.1131826973E+02    0.4197838974E+02    0.1777029991E+01    0    0
   16    1    5    5    0    0    0.6520888329E+01    0.1232008076E+02   -0.7009399414E+01    0.1560250187E+02    0.6264239200E-03    0    0
  -24    2    5    5    0    0    0.9827224731E+01    0.1819028664E+02   -0.1035121822E+02    0.2316207504E+02    0.1368633151E+01    0    0
 -321    1   10   10    0    0    0.3265743017E+01    0.6186645985E+01   -0.3269978285E+01    0.7737967014E+01    0.4936669469E+00    0    0
 -211    1   10   10    0    0    0.6532632709E+00    0.1060719967E+01   -0.8414115310E+00    0.1509745836E+01    0.1395688504E+00    0    0
  211    1   10   10    0    0    0.5908216476E+01    0.1094291687E+02   -0.6239826202E+01    0.1391435814E+02    0.1395679861E+00    0    0
  -16    1    8    8    0    0    0.2507537365E+01    0.3129685521E+00   -0.7446374297E+00    0.2634421825E+01    0.2854658123E-04    0    0
   24    2    8    8    0    0    0.3721638107E+02    0.6971451759E+01   -0.1057407761E+02    0.3934561920E+02    0.1614467144E+01    0    0
  211    1   15   15    0    0    0.3103163242E+01    0.5781790614E+00   -0.9459376931E+00    0.3298210144E+01    0.1395679861E+00    0    0
  211    1   15   15    0    0    0.4779610157E+01    0.6212025881E+00   -0.1195981503E+01    0.4967938900E+01    0.1395679116E+00    0    0
 -211    1   15   15    0    0    0.1070104790E+02    0.2002914190E+01   -0.2826401472E+01    0.1124864960E+02    0.1395679414E+00    0    0
  111    1   15   15    0    0    0.4509795666E+01    0.9469431639E+00   -0.1264983535E+01    0.4780518532E+01    0.1349639893E+00    0    0
  111    1   15   15    0    0    0.1076341438E+02    0.1990139723E+01   -0.3353770971E+01    0.1144891834E+02    0.1349638999E+00    0    0
  111    1   15   15    0    0    0.3359350443E+01    0.8320728540E+00   -0.9870021939E+00    0.3601384401E+01    0.1349639595E+00    0    0
</event>
<event>
   20 9999    1    0.9119999695E+02    0.7565275169E-02    0.1185000000E+00
   11   -1    0    0    0    0    0.0000000000E+00    0.0000000000E+00    0.8000000000E+02    0.8000000000E+02    0.5109988851E-03    0    0
  -11   -1    0    0    0    0    0.0000000000E+00    0.0000000000E+00   -0.8000000000E+02    0.8000000000E+02    0.5109988851E-03    0    0
  -24    2    1    2    0    0    0.8008895874E+01   -0.4404400349E+01   -0.1818776608E+01    0.8044029999E+02    0.7989864349E+02    0    0
   24    2    1    2    0    0   -0.8006811142E+01    0.4400363445E+01    0.1909147382E+01    0.7946919250E+02    0.7891917419E+02    0    0
   22    1    1    2    0    0   -0.2097124700E-02    0.4034874961E-02   -0.7792170346E-01    0.7805427909E-01    0.0000000000E+00    0    0
   22    1    1    2    0    0    0.1274736314E-04    0.2143773600E-05   -0.1244906988E-01    0.1244907640E-01    0.0000000000E+00    0    0
   15    2    3    3    0    0    0.3222502899E+02   -0.1635000420E+02    0.2372983360E+02    0.4326705551E+02    0.1777029991E+01    0    0
  -16    1    3    3    0    0   -0.2421613503E+02    0.1194560432E+02   -0.2554861069E+02    0.3717324448E+02    0.0000000000E+00    0    0
   16    1    4    4    0    0   -0.3420951843E+02   -0.6319667816E+01   -0.2301180840E+02    0.4171058273E+02    0.0000000000E+00    0    0
  -15    2    4    4    0    0    0.2620270920E+02    0.1072003174E+02    0.2492095566E+02    0.3775861359E+02    0.1777029991E+01    0    0
   16    1    7    7    0    0   -0.7944512763E-03    0.2654384356E-02    0.8482336067E-02    0.8917825297E-02    0.3148569958E-03    0    0
  -24    2    7    7    0    0    0.3222709656E+02   -0.1635330391E+02    0.2372228622E+02    0.4325984192E+02    0.1628169656E+01    0    0
 -321    1   12   12    0    0    0.5686586380E+01   -0.2756005526E+01    0.4497583866E+01    0.7772052288E+01    0.4936668277E+00    0    0
  111    1   12   12    0    0    0.1096612644E+02   -0.5503767967E+01    0.7926650524E+01    0.1460812759E+02    0.1349644363E+00    0    0
  130    1   12   12    0    0    0.1557438183E+02   -0.8093529701E+01    0.1129805088E+02    0.2087966156E+02    0.4977200329E+00    0    0
  -16    1   10   10    0    0    0.1050406647E+02    0.4510008812E+01    0.1073876381E+02    0.1568428040E+02    0.6224389072E-03    0    0
20213    2   10   10    0    0    0.1569967175E+02    0.6210443497E+01    0.1418316936E+02    0.2207581520E+02    0.1063035607E+01    0    0
  211    1   17   17    0    0    0.1713075042E+01    0.8465316892E+00    0.1704608679E+01    0.2564451456E+01    0.1395680606E+00    0    0
  211    1   17   17    0    0    0.1018899155E+02    0.3619936705E+01    0.8789758682E+01    0.1393552303E+02    0.1395682842E+00    0    0
 -211    1   17   17    0    0    0.3797606707E+01    0.1743975639E+01    0.3688804150E+01    0.5575842857E+01    0.1395680755E+00    0    0
</event>
<event>
   16 9999    1    0.9119999695E+02    0.7565275169E-02    0.1185000000E+00
   11   -1    0    0    0    0    0.0000000000E+00    0.0000000000E+00    0.8000000000E+02    0.8000000000E+02    0.5109988851E-03    0    0
  -11   -1    0    0    0    0    0.0000000000E+00    0.0000000000E+00   -0.8000000000E+02    0.8000000000E+02    0.5109988851E-03    0    0
  -24    2    1    2    0    0   -0.2804322720E+01   -0.6619419098E+01   -0.6335570335E+01    0.7300421906E+02    0.7237261200E+02    0    0
   24    2    1    2    0    0    0.2802984715E+01    0.6616113186E+01    0.1395515442E+01    0.8205572510E+02    0.8172860718E+02    0    0
   22    1    1    2    0    0    0.1337927650E-02    0.3305801423E-02    0.4940054893E+01    0.4940056324E+01    0.0000000000E+00    0    0
   15    2    3    3    0    0   -0.1467136002E+02   -0.4066709042E+01    0.3054623032E+02    0.3417626190E+02    0.1777029991E+01    0    0
  -16    1    3    3    0    0    0.1186703682E+02   -0.2552710056E+01   -0.3688180161E+02    0.3882795334E+02    0.0000000000E+00    0    0
   16    1    4    4    0    0   -0.3192707825E+02    0.2489031792E+02    0.1030405807E+02    0.4177367401E+02    0.0000000000E+00    0    0
  -15    2    4    4    0    0    0.3473006058E+02   -0.1827420616E+02   -0.8908542633E+01    0.4028205109E+02    0.1777029991E+01    0    0
   16    1    6    6    0    0   -0.1362124538E+02   -0.4172482014E+01    0.2880761337E+02    0.3213761902E+02    0.1220703125E-03    0    0
 -211    1    6    6    0    0   -0.1050692797E+01    0.1056125537E+00    0.1739820719E+01    0.2039991379E+01    0.1395679116E+00    0    0
  -16    1    9    9    0    0    0.1076917648E+02   -0.5654661655E+01   -0.2642355204E+01    0.1244718456E+02    0.3750062897E-03    0    0
   24    2    9    9    0    0    0.2396225357E+02   -0.1262026405E+02   -0.6266538620E+01    0.2783645439E+02    0.1462212205E+01    0    0
  321    1   13   13    0    0    0.6365189552E+01   -0.3315515280E+01   -0.1524404049E+01    0.7353624344E+01    0.4936669767E+00    0    0
  211    1   13   13    0    0    0.2789425373E+01   -0.1347364664E+01   -0.9480746984E+00    0.3242623806E+01    0.1395677626E+00    0    0
 -321    1   13   13    0    0    0.1480763817E+02   -0.7957383156E+01   -0.3794059753E+01    0.1724020576E+02    0.4936670065E+00    0    0
</event>
<event>
   16 9999    1    0.9119999695E+02    0.7565275169E-02    0.1185000000E+00
   11   -1    0    0    0    0    0.0000000000E+00    0.0000000000E+00    0.8000000000E+02    0.8000000000E+02    0.5109988851E-03    0    0
  -11   -1    0    0    0    0    0.0000000000E+00    0.0000000000E+00   -0.8000000000E+02    0.8000000000E+02    0.5109988851E-03    0    0
  -24    2    1    2    0    0   -0.1300152206E+02    0.1401811790E+02    0.1165245414E+01    0.7725556183E+02    0.7484328461E+02    0    0
   24    2    1    2    0    0    0.1300155544E+02   -0.1401784325E+02   -0.1166096091E+01    0.8274354553E+02    0.8049592590E+02    0    0
   22    1    1    2    0    0   -0.3339567047E-04   -0.2743389341E-03    0.8505892474E-03    0.8943596622E-03    0.0000000000E+00    0    0
   15    2    3    3    0    0   -0.3216272736E+02   -0.1676604271E+02    0.1381360626E+02    0.3885247421E+02    0.1777029991E+01    0    0
  -16    1    3    3    0    0    0.1916120529E+02    0.3078415871E+02   -0.1264836121E+02    0.3840309143E+02    0.0000000000E+00    0    0
   16    1    4    4    0    0   -0.2128422928E+02   -0.3246315384E+02    0.1350483131E+02    0.4110055161E+02    0.0000000000E+00    0    0
  -15    2    4    4    0    0    0.3428578568E+02    0.1844531250E+02   -0.1467092705E+02    0.4164299011E+02    0.1777029991E+01    0    0
   16    1    6    6    0    0   -0.1299591541E+01   -0.5928769112E+00    0.7538610101E+00    0.1615161777E+01    0.4094362666E-03    0    0
  -24    2    6    6    0    0   -0.3086440086E+02   -0.1617382431E+02    0.1306028938E+02    0.3723884201E+02    0.1398664474E+01    0    0
 -211    1   11   11    0    0   -0.1971203566E+01   -0.8719091415E+00    0.1018117428E+01    0.2387867689E+01    0.1395682395E+00    0    0
  111    1   11   11    0    0   -0.7566274643E+01   -0.4370163441E+01    0.3156268358E+01    0.9291236877E+01    0.1349641234E+00    0    0
   22    1   11   11    0    0   -0.2132692337E+02   -0.1093175125E+02    0.8885902405E+01    0.2555973625E+02    0.2363881504E-03    0    0
  -16    1    9    9    0    0    0.1999463654E+02    0.9793242455E+01   -0.8161954880E+01    0.2371308899E+02    0.3370776540E-03    0    0
  211    1    9    9    0    0    0.1429250050E+02    0.8652797699E+01   -0.6509551048E+01    0.1793154144E+02    0.1395675540E+00    0    0
</event>
<event>
   19 9999    1    0.9119999695E+02    0.7565275169E-02    0.1185000000E+00
   11   -1    0    0    0    0    0.0000000000E+00    0.0000000000E+00    0.8000000000E+02    0.8000000000E+02    0.5109988851E-03    0    0
  -11   -1    0    0    0    0    0.0000000000E+00    0.0000000000E+00   -0.8000000000E+02    0.8000000000E+02    0.5109988851E-03    0    0
  -24    2    1    2    0    0    0.1082208061E+02   -0.1477612305E+02    0.3793022919E+02    0.6922823334E+02    0.5493991852E+02    0    0
   24    2    1    2    0    0   -0.1082215214E+02    0.1477610302E+02   -0.3792919159E+02    0.9077072906E+02    0.8040677643E+02    0    0
   22    1    1    2    0    0    0.7208986062E-04    0.2025203867E-04   -0.1037044218E-02    0.1039744122E-02    0.0000000000E+00    0    0
   15    2    3    3    0    0    0.3255271149E+02   -0.4451055527E+01    0.1564364815E+02    0.3643312454E+02    0.1777029991E+01    0    0
  -16    1    3    3    0    0   -0.2173063087E+02   -0.1032506752E+02    0.2228658104E+02    0.3279510498E+02    0.0000000000E+00    0    0
   16    1    4    4    0    0   -0.2620586014E+02    0.1264852810E+02    0.1682721519E+02    0.3361380005E+02    0.0000000000E+00    0    0
  -15    2    4    4    0    0    0.1463142490E+02    0.6746358275E+00   -0.4924877930E+02    0.5141141510E+02    0.1777029991E+01    0    0
   22    1    4    4    0    0    0.7522826791E+00    0.1452938676E+01   -0.5507629395E+01    0.5745514870E+01    0.0000000000E+00    0    0
   16    1    6    6    0    0    0.6159409523E+01   -0.7983124256E+00    0.3067412376E+01    0.6927094936E+01    0.1699146815E-03    0    0
  -24    2    6    6    0    0    0.2639458466E+02   -0.3652918339E+01    0.1257685280E+02    0.2950746536E+02    0.1579652309E+01    0    0
  221    1   12   12    0    0    0.1193779945E+02   -0.1865220428E+01    0.5489210606E+01    0.1328242111E+02    0.5488002300E+00    0    0
 -211    1   12   12    0    0    0.4941273689E+01   -0.9325880408E+00    0.2729441404E+01    0.5723218918E+01    0.1395678818E+00    0    0
  111    1   12   12    0    0    0.9515508652E+01   -0.8551094532E+00    0.4358198643E+01    0.1050182056E+02    0.1349639595E+00    0    0
  -16    1    9    9    0    0    0.1062001514E+02    0.8050450683E-01   -0.3404290771E+02    0.3566105270E+02    0.0000000000E+00    0    0
  213    2    9    9    0    0    0.4012038708E+01    0.5941592455E+00   -0.1520798588E+02    0.1575257111E+02    0.6412190199E+00    0    0
  211    1   17   17    0    0    0.2053947210E+01    0.2242009044E+00   -0.8808050156E+01    0.9048215866E+01    0.1395677477E+00    0    0
  111    1   17   17    0    0    0.1958091378E+01    0.3699583411E+00   -0.6399934769E+01    0.6704354763E+01    0.1349639744E+00    0    0
</event>
<event>
   20 9999    1    0.9119999695E+02    0.7565275169E-02    0.1185000000E+00
   11   -1    0    0    0    0    0.0000000000E+00    0.0000000000E+00    0.8000000000E+02    0.8000000000E+02    0.5109988851E-03    0    0
  -11   -1    0    0    0    0    0.0000000000E+00    0.0000000000E+00   -0.8000000000E+02    0.8000000000E+02    0.5109988851E-03    0    0
  -24    2    1    2    0    0   -0.3790781021E+01    0.2899093628E+01   -0.1315555954E+02    0.7792811584E+02    0.7666125488E+02    0    0
   24    2    1    2    0    0    0.3791740656E+01   -0.2899139166E+01    0.1315730286E+02    0.8206989288E+02    0.8086760712E+02    0    0
   22    1    1    2    0    0   -0.9598067845E-03    0.4563976836E-04   -0.1743389992E-02    0.1990658231E-02    0.0000000000E+00    0    0
   15    2    3    3    0    0    0.1408662415E+02    0.3592477036E+02   -0.1701205134E+01    0.3866618729E+02    0.1777029991E+01    0    0
  -16    1    3    3    0    0   -0.1787740517E+02   -0.3302567673E+02   -0.1145435429E+02    0.3926192856E+02    0.0000000000E+00    0    0
   16    1    4    4    0    0    0.4041304398E+02   -0.1031097889E+02    0.1573023415E+02    0.4457545090E+02    0.0000000000E+00    0    0
  -15    2    4    4    0    0   -0.3662130356E+02    0.7411839962E+01   -0.2572931051E+01    0.3749444199E+02    0.1777029991E+01    0    0
   16    1    6    6    0    0    0.2157823563E+01    0.4277727604E+01   -0.1283495575E+00    0.4792872906E+01    0.3872246598E-03    0    0
  -24    2    6    6    0    0    0.1192935467E+02    0.3164845657E+02   -0.1572922468E+01    0.3387483597E+02    0.1046962380E+01    0    0
  111    1   11   11    0    0    0.5981768131E+01    0.1633075523E+02   -0.8381849527E+00    0.1741252136E+02    0.1349637210E+00    0    0
  111    1   11   11    0    0    0.3106781960E+01    0.7926681519E+01   -0.3513009846E+00    0.8522089005E+01    0.1349640936E+00    0    0
  111    1   11   11    0    0    0.1281839967E+01    0.3603810310E+01   -0.3493988141E-01    0.3827531576E+01    0.1349639148E+00    0    0
 -211    1   11   11    0    0    0.1558965087E+01    0.3787209749E+01   -0.3484967053E+00    0.4112694740E+01    0.1395680159E+00    0    0
  -16    1    9    9    0    0   -0.1502493620E+01    0.2387857735E+00    0.9685262293E-01    0.1524429679E+01    0.3506202775E-03    0    0
   24    2    9    9    0    0   -0.3512025452E+02    0.7173346043E+01   -0.2669885159E+01    0.3597148895E+02    0.1389460206E+01    0    0
  221    1   17   17    0    0   -0.8704043388E+01    0.1786941886E+01   -0.7155546546E+00    0.8931222916E+01    0.5487998724E+00    0    0
  211    1   17   17    0    0   -0.5241821289E+01    0.1164386392E+01   -0.6270937920E+00    0.5407884598E+01    0.1395678520E+00    0    0
  111    1   17   17    0    0   -0.2117439270E+02    0.4222018719E+01   -0.1327236891E+01    0.2163238525E+02    0.1349640340E+00    0    0
</event>
<event>
   19 9999    1    0.9119999695E+02    0.7565275169E-02    0.1185000000E+00
   11   -1    0    0    0    0    0.0000000000E+00    0.0000000000E+00    0.8000000000E+02    0.8000000000E+02    0.5109988851E-03    0    0
  -11   -1    0    0    0    0    0.0000000000E+00    0.0000000000E+00   -0.8000000000E+02    0.8000000000E+02    0.5109988851E-03    0    0
  -24    2    1    2    0    0   -0.1814636230E+02    0.2236204386E+01   -0.6549819469E+01    0.8235285187E+02    0.8003000641E+02    0    0
   24    2    1    2    0    0    0.1814633751E+02   -0.2236129045E+01    0.6533907413E+01    0.7763091278E+02    0.7516366577E+02    0    0
   22    1    1    2    0    0   -0.1021018193E-05   -0.1000665748E-05    0.1606411301E-01    0.1606411301E-01    0.0000000000E+00    0    0
   22    1    1    2    0    0    0.2586479059E-04   -0.7427596574E-04   -0.1517036435E-03    0.1708797936E-03    0.0000000000E+00    0    0
   15    2    3    3    0    0   -0.2014819533E+00   -0.3737171555E+02    0.3942092896E+01    0.3762158585E+02    0.1777029991E+01    0    0
  -16    1    3    3    0    0   -0.1794488144E+02    0.3960792160E+02   -0.1049191284E+02    0.4473126984E+02    0.0000000000E+00    0    0
   16    1    4    4    0    0   -0.1413011169E+02   -0.3069728470E+02   -0.1465623379E+01    0.3382501221E+02    0.0000000000E+00    0    0
  -15    2    4    4    0    0    0.3227645111E+02    0.2846115494E+02    0.7999530792E+01    0.4380590057E+02    0.1777029991E+01    0    0
   16    1    7    7    0    0   -0.6919930875E-01   -0.4646007419E+00    0.1651660204E+00    0.4979180396E+00    0.3787131864E-03    0    0
  -24    2    7    7    0    0   -0.1322905719E+00   -0.3690858459E+02    0.3777081966E+01    0.3712514877E+02    0.1322511315E+01    0    0
  111    1   12   12    0    0    0.2436950207E+00   -0.5167216301E+01    0.4250670075E+00    0.5192148685E+01    0.1349638402E+00    0    0
  111    1   12   12    0    0   -0.4985430092E-01   -0.1710961914E+02    0.1600589633E+01    0.1718492508E+02    0.1349640638E+00    0    0
 -321    1   12   12    0    0   -0.3261313140E+00   -0.1463175297E+02    0.1751425505E+01    0.1474807644E+02    0.4936670959E+00    0    0
  -16    1   10   10    0    0    0.1927616119E+02    0.1742054367E+02    0.4884477139E+01    0.2643679047E+02    0.9155273438E-04    0    0
   24    2   10   10    0    0    0.1300155830E+02    0.1104173088E+02    0.3115368366E+01    0.1737083244E+02    0.1039231300E+01    0    0
  321    1   17   17    0    0    0.5430964470E+01    0.4445645332E+01    0.1275270224E+01    0.7150465965E+01    0.4936670065E+00    0    0
  130    1   17   17    0    0    0.7570592403E+01    0.6596084595E+01    0.1840097785E+01    0.1022036648E+02    0.4977200031E+00    0    0
</event>
<event>
   18 9999    1    0.9119999695E+02    0.7565275169E-02    0.1185000000E+00
   11   -1    0    0    0    0    0.0000000000E+00    0.0000000000E+00    0.8000000000E+02    0.8000000000E+02    0.5109988851E-03    0    0
  -11   -1    0    0    0    0    0.0000000000E+00    0.0000000000E+00   -0.8000000000E+02    0.8000000000E+02    0.5109988851E-03    0    0
  -24    2    1    2    0    0    0.1341334939E+01    0.3483744144E+01   -0.1041441536E+02    0.7918292999E+02    0.7840625763E+02    0    0
   24    2    1    2    0    0   -0.1341250777E+01   -0.3483800411E+01    0.1042366600E+02    0.8080781555E+02    0.8004570007E+02    0    0
   22    1    1    2    0    0   -0.8422065730E-04    0.5610392691E-04   -0.9251144715E-02    0.9251697920E-02    0.0000000000E+00    0    0
   15    2    3    3    0    0    0.3770160294E+02   -0.7220170975E+01    0.3991362333E+01    0.3863457489E+02    0.1777029991E+01    0    0
  -16    1    3    3    0    0   -0.3636026764E+02    0.1070391560E+02   -0.1440577698E+02    0.4054835510E+02    0.0000000000E+00    0    0
   16    1    4    4    0    0    0.5165011287E+00   -0.1858480453E+02    0.4187923050E+02    0.4582064819E+02    0.0000000000E+00    0    0
  -15    2    4    4    0    0   -0.1857751846E+01    0.1510100460E+02   -0.3145556450E+02    0.3498716736E+02    0.1777029991E+01    0    0
   16    1    6    6    0    0    0.1336422729E+02   -0.2880017996E+01    0.1452534676E+01    0.1374797916E+02    0.7854942669E-04    0    0
  -24    2    6    6    0    0    0.2433885765E+02   -0.4340436935E+01    0.2538984537E+01    0.2488811684E+02    0.1323826909E+01    0    0
 -321    1   11   11    0    0    0.1993746758E+02   -0.3463484049E+01    0.2151400805E+01    0.2035609436E+02    0.4936670661E+00    0    0
  310    1   11   11    0    0    0.4401391506E+01   -0.8769536614E+00    0.3875840604E+00    0.4532023907E+01    0.4977200031E+00    0    0
  -16    1    9    9    0    0   -0.2758708596E+00    0.4355319023E+01   -0.8917029381E+01    0.9927655220E+01    0.4438183387E-03    0    0
   24    2    9    9    0    0   -0.1581954241E+01    0.1074628067E+02   -0.2253977394E+02    0.2506089211E+02    0.1421892405E+01    0    0
  130    1   15   15    0    0   -0.1178140163E+01    0.6769019604E+01   -0.1415745258E+02    0.1574448586E+02    0.4977200627E+00    0    0
  211    1   15   15    0    0   -0.5019465089E-01    0.7800812125E+00   -0.1326742768E+01    0.1546212077E+01    0.1395680755E+00    0    0
  310    1   15   15    0    0   -0.3536193371E+00    0.3197179079E+01   -0.7055577755E+01    0.7770193577E+01    0.4977200031E+00    0    0
</event>
<event>
   22 9999    1    0.9119999695E+02    0.7565275169E-02    0.1185000000E+00
   11   -1    0    0    0    0    0.0000000000E+00    0.0000000000E+00    0.8000000000E+02    0.8000000000E+02    0.5109988851E-03    0    0
  -11   -1    0    0    0    0    0.0000000000E+00    0.0000000000E+00   -0.8000000000E+02    0.8000000000E+02    0.5109988851E-03    0    0
  -24    2    1    2    0    0    0.2357762527E+02   -0.4064378738E+01    0.9320018768E+01    0.8431712341E+02    0.8031245422E+02    0    0
   24    2    1    2    0    0   -0.2357762527E+02    0.4064378738E+01   -0.9320018768E+01    0.7568287659E+02    0.7119418335E+02    0    0
   15    2    3    3    0    0    0.2256443787E+02    0.1622336197E+02    0.3926181412E+02    0.4813521957E+02    0.1777029991E+01    0    0
  -16    1    3    3    0    0    0.1013187289E+01   -0.2028774071E+02   -0.2994179726E+02    0.3618190384E+02    0.0000000000E+00    0    0
   16    1    4    4    0    0    0.1361679673E+01    0.1337291813E+02    0.2726781654E+02    0.3040103531E+02    0.0000000000E+00    0    0
  -15    2    4    4    0    0   -0.2493930435E+02   -0.9308539391E+01   -0.3658783340E+02    0.4528184128E+02    0.1777029991E+01    0    0
   16    1    5    5    0    0    0.8243762016E+01    0.5968392849E+01    0.1393467045E+02    0.1725561905E+02    0.8631674427E-04    0    0
  -24    2    5    5    0    0    0.1432156372E+02    0.1025560760E+02    0.2532868958E+02    0.3088149452E+02    0.1356287360E+01    0    0
 -211    1   10   10    0    0    0.2056423903E+01    0.1265356898E+01    0.3686992645E+01    0.4409467220E+01    0.1395679712E+00    0    0
 -211    1   10   10    0    0    0.1513771296E+01    0.9524829984E+00    0.2694800615E+01    0.3237307072E+01    0.1395679712E+00    0    0
 -211    1   10   10    0    0    0.4754110813E+01    0.3480668545E+01    0.7888268471E+01    0.9846872330E+01    0.1395679563E+00    0    0
  211    1   10   10    0    0    0.1768589854E+01    0.1267490745E+01    0.3448709011E+01    0.4080136776E+01    0.1395679414E+00    0    0
  211    1   10   10    0    0    0.4228668690E+01    0.3289608717E+01    0.7609918594E+01    0.9307711601E+01    0.1395680010E+00    0    0
  -16    1    8    8    0    0   -0.1377433896E+01   -0.3106531501E+00   -0.2214048386E+01    0.2625993013E+01    0.2441406250E-03    0    0
   24    2    8    8    0    0   -0.2356285286E+02   -0.8998252869E+01   -0.3437522507E+02    0.4265763474E+02    0.1356772065E+01    0    0
  211    1   17   17    0    0   -0.2657555103E+01   -0.1227988243E+01   -0.4123402119E+01    0.5058900833E+01    0.1395683587E+00    0    0
  211    1   17   17    0    0   -0.6274004459E+01   -0.2101161957E+01   -0.8666195869E+01    0.1090414810E+02    0.1395680010E+00    0    0
 -211    1   17   17    0    0   -0.4753836632E+01   -0.1867452621E+01   -0.7128801346E+01    0.8770726204E+01    0.1395680010E+00    0    0
  111    1   17   17    0    0   -0.8338881493E+01   -0.3315731764E+01   -0.1213856411E+02    0.1509615803E+02    0.1349640787E+00    0    0
  111    1   17   17    0    0   -0.1538574219E+01   -0.4859183133E+00   -0.2318261147E+01    0.2827698231E+01    0.1349637657E+00    0    0
</event>
<event>
   15 9999    1    0.9119999695E+02    0.7565275169E-02    0.1185000000E+00
   11   -1    0    0    0    0    0.0000000000E+00    0.0000000000E+00    0.8000000000E+02    0.8000000000E+02    0.5109988851E-03    0    0
  -11   -1    0    0    0    0    0.0000000000E+00    0.0000000000E+00   -0.8000000000E+02    0.8000000000E+02    0.5109988851E-03    0    0
  -24    2    1    2    0    0   -0.5965460300E+01   -0.2113162041E+01    0.1490074348E+02    0.7822990417E+02    0.7653648376E+02    0    0
   24    2    1    2    0    0    0.5965460300E+01    0.2113162041E+01   -0.1490074348E+02    0.8177009583E+02    0.8015151215E+02    0    0
   15    2    3    3    0    0    0.3058360481E+02    0.1509222412E+02   -0.2506246328E+01    0.3424282837E+02    0.1777029991E+01    0    0
  -16    1    3    3    0    0   -0.3654906464E+02   -0.1720538521E+02    0.1740699005E+02    0.4398707581E+02    0.0000000000E+00    0    0
   16    1    4    4    0    0   -0.1173931503E+02    0.3773630905E+02   -0.1404287624E+02    0.4194094467E+02    0.0000000000E+00    0    0
  -15    2    4    4    0    0    0.1770477486E+02   -0.3562314606E+02   -0.8578680754E+00    0.3982915115E+02    0.1777029991E+01    0    0
   16    1    5    5    0    0    0.1146747971E+02    0.5658089638E+01   -0.6629818082E+00    0.1280455399E+02    0.2589502255E-03    0    0
*****    2    5    5    0    0    0.1911733055E+02    0.9434728622E+01   -0.1843363166E+01    0.2143962097E+02    0.1331532955E+01    0    0
 -211    1   10   10    0    0    0.1020036983E+02    0.5316690445E+01   -0.9260483384E+00    0.1154087448E+02    0.1395676583E+00    0    0
 -211    1   10   10    0    0    0.3079990149E+01    0.1776405811E+01   -0.1503965110E+00    0.3561468124E+01    0.1395680755E+00    0    0
  211    1   10   10    0    0    0.5836972713E+01    0.2341633320E+01   -0.7669184804E+00    0.6337281704E+01    0.1395683885E+00    0    0
  -16    1    8    8    0    0    0.1504264259E+02   -0.2958641624E+02   -0.1411077976E+00    0.3319121933E+02    0.2441406250E-03    0    0
  211    1    8    8    0    0    0.2662830830E+01   -0.6038132668E+01   -0.7167940736E+00    0.6639502048E+01    0.1395677477E+00    0    0
</event>
<event>
   19 9999    1    0.9119999695E+02    0.7565275169E-02    0.1185000000E+00
   11   -1    0    0    0    0    0.0000000000E+00    0.0000000000E+00    0.8000000000E+02    0.8000000000E+02    0.5109988851E-03    0    0
  -11   -1    0    0    0    0    0.0000000000E+00    0.0000000000E+00   -0.8000000000E+02    0.8000000000E+02    0.5109988851E-03    0    0
  -24    2    1    2    0    0    0.9248220444E+01   -0.2345254719E+00   -0.8355711937E+01    0.8115097046E+02    0.8018776703E+02    0    0
   24    2    1    2    0    0   -0.9246669769E+01    0.2333558649E+00    0.8385946274E+01    0.7881645966E+02    0.7782129669E+02    0    0
   22    1    1    2    0    0   -0.1782177715E-02    0.1013609115E-02   -0.3135072067E-01    0.3141769022E-01    0.0000000000E+00    0    0
   22    1    1    2    0    0    0.2311041026E-03    0.1560017408E-03    0.1116538537E-02    0.1150827506E-02    0.0000000000E+00    0    0
   15    2    3    3    0    0    0.3429839706E+02   -0.4942275524E+01    0.2232812500E+02    0.4126147461E+02    0.1777029991E+01    0    0
  -16    1    3    3    0    0   -0.2505017853E+02    0.4707749844E+01   -0.3068383789E+02    0.3988949966E+02    0.0000000000E+00    0    0
   16    1    4    4    0    0   -0.3265092969E+00    0.3051100159E+02    0.2816507149E+02    0.4152468109E+02    0.0000000000E+00    0    0
  -15    2    4    4    0    0   -0.8920160294E+01   -0.3027764511E+02   -0.1977912521E+02    0.3729177856E+02    0.1777029991E+01    0    0
   16    1    7    7    0    0    0.2780196905E+01   -0.2047157437E+00    0.1624221921E+01    0.3226375580E+01    0.4071552830E-03    0    0
  -24    2    7    7    0    0    0.3151955223E+02   -0.4737754345E+01    0.2070478249E+02    0.3803672409E+02    0.1475059271E+01    0    0
  310    1   12   12    0    0    0.1156084442E+02   -0.1994513392E+01    0.7567888260E+01    0.1396967697E+02    0.4977200627E+00    0    0
 -211    1   12   12    0    0    0.8682730675E+01   -0.9936205149E+00    0.5483998775E+01    0.1031846905E+02    0.1395681798E+00    0    0
  130    1   12   12    0    0    0.1127597904E+02   -0.1749620438E+01    0.7652896404E+01    0.1374857903E+02    0.4977200329E+00    0    0
  -16    1   10   10    0    0   -0.5868566990E+01   -0.1748135567E+02   -0.1128034019E+02    0.2161675262E+02    0.1294751128E-03    0    0
  213    2   10   10    0    0   -0.3051944494E+01   -0.1279747963E+02   -0.8499564171E+01    0.1567649269E+02    0.6480680704E+00    0    0
  211    1   17   17    0    0   -0.1414204359E+01   -0.5007303715E+01   -0.3136291981E+01    0.6076912880E+01    0.1395679861E+00    0    0
  111    1   17   17    0    0   -0.1637740374E+01   -0.7790176392E+01   -0.5363272190E+01    0.9599580765E+01    0.1349647790E+00    0    0
</event>
<event>
   19 9999    1    0.9119999695E+02    0.7565275169E-02    0.1185000000E+00
   11   -1    0    0    0    0    0.0000000000E+00    0.0000000000E+00    0.8000000000E+02    0.8000000000E+02    0.5109988851E-03    0    0
  -11   -1    0    0    0    0    0.0000000000E+00    0.0000000000E+00   -0.8000000000E+02    0.8000000000E+02    0.5109988851E-03    0    0
  -24    2    1    2    0    0   -0.2953587770E+01   -0.1474277592E+02   -0.6131962299E+01    0.7981591797E+02    0.7814669800E+02    0    0
   24    2    1    2    0    0    0.2953730822E+01    0.1474288273E+02    0.6119479179E+01    0.8016444397E+02    0.7850358582E+02    0    0
   22    1    1    2    0    0   -0.3694117595E-05   -0.2121085117E-05    0.1604521088E-01    0.1604521275E-01    0.0000000000E+00    0    0
   22    1    1    2    0    0    0.2505821612E-06    0.3960407867E-05   -0.3098306246E-02    0.3098308807E-02    0.0000000000E+00    0    0
   22    1    1    2    0    0   -0.1396745938E-03   -0.1091986851E-03   -0.4639255349E-03    0.4966490087E-03    0.0000000000E+00    0    0
   15    2    3    3    0    0   -0.4909506798E+01    0.3185171127E+02   -0.7591522217E+01    0.3315756226E+02    0.1777029991E+01    0    0
  -16    1    3    3    0    0    0.1955919266E+01   -0.4659448624E+02    0.1459560394E+01    0.4665835571E+02    0.0000000000E+00    0    0
   16    1    4    4    0    0   -0.4380196095E+01    0.4032976151E+02    0.2484624863E+02    0.4757112503E+02    0.0000000000E+00    0    0
  -15    2    4    4    0    0    0.7333926678E+01   -0.2558687782E+02   -0.1872677040E+02    0.3259331894E+02    0.1777029991E+01    0    0
   16    1    8    8    0    0   -0.2809078097E+00    0.1993313789E+01   -0.7588008046E+00    0.2151275873E+01    0.8631674427E-04    0    0
  -24    2    8    8    0    0   -0.4628791809E+01    0.2985964966E+02   -0.6833019733E+01    0.3100758743E+02    0.1325128794E+01    0    0
 -321    1   13   13    0    0   -0.2328314781E+01    0.1248193455E+02   -0.3052269459E+01    0.1306827450E+02    0.4936670363E+00    0    0
  310    1   13   13    0    0   -0.2300477743E+01    0.1737771797E+02   -0.3780751467E+01    0.1793931580E+02    0.4977200031E+00    0    0
  -16    1   11   11    0    0    0.1628425241E+01   -0.5838379383E+01   -0.3814534903E+01    0.7161642551E+01    0.0000000000E+00    0    0
   24    2   11   11    0    0    0.5705790520E+01   -0.1974950600E+02   -0.1491297245E+02    0.2543296051E+02    0.1356381059E+01    0    0
  321    1   17   17    0    0    0.3652209520E+01   -0.1178350830E+02   -0.8481235504E+01    0.1497881031E+02    0.4936669469E+00    0    0
  130    1   17   17    0    0    0.2053580523E+01   -0.7965996742E+01   -0.6431736469E+01    0.1045415020E+02    0.4977200627E+00    0    0
</event>
<event>
   18 9999    1    0.9119999695E+02    0.7565275169E-02    0.1185000000E+00
   11   -1    0    0    0    0    0.0000000000E+00    0.0000000000E+00    0.8000000000E+02    0.8000000000E+02    0.5109988851E-03    0    0
  -11   -1    0    0    0    0    0.0000000000E+00    0.0000000000E+00   -0.8000000000E+02    0.8000000000E+02    0.5109988851E-03    0    0
  -24    2    1    2    0    0    0.3558413744E+01   -0.1012213802E+02    0.1385570335E+02    0.7782060242E+02    0.7582180023E+02    0    0
   24    2    1    2    0    0   -0.3558413744E+01    0.1012213802E+02   -0.1385570335E+02    0.8217939758E+02    0.8028918457E+02    0    0
   15    2    3    3    0    0   -0.2725205231E+02   -0.2823077202E+02    0.1504854774E+02    0.4206266022E+02    0.1777029991E+01    0    0
  -16    1    3    3    0    0    0.3081046677E+02    0.1810863495E+02   -0.1192844629E+01    0.3575794220E+02    0.0000000000E+00    0    0
   16    1    4    4    0    0   -0.2344811249E+02   -0.1961740112E+02    0.1692960167E+02    0.3494664383E+02    0.0000000000E+00    0    0
  -15    2    4    4    0    0    0.1988969994E+02    0.2973953819E+02   -0.3078530502E+02    0.4723275375E+02    0.1777029991E+01    0    0
   16    1    5    5    0    0   -0.1072072411E+02   -0.1131015491E+02    0.5754765034E+01    0.1661237144E+02    0.1057159898E-03    0    0
*****    2    5    5    0    0   -0.1653240204E+02   -0.1692172813E+02    0.9294375420E+01    0.2545194626E+02    0.1323254943E+01    0    0
 -211    1   10   10    0    0   -0.1461188984E+02   -0.1524876213E+02    0.8355197906E+01    0.2271257210E+02    0.1395684034E+00    0    0
 -211    1   10   10    0    0   -0.1178305387E+01   -0.8861067891E+00    0.5914878249E+00    0.1594655395E+01    0.1395677179E+00    0    0
  211    1   10   10    0    0   -0.7422044277E+00   -0.7868584991E+00    0.3476893902E+00    0.1144718647E+01    0.1395680308E+00    0    0
  -16    1    8    8    0    0    0.1597861201E+00    0.2808986008E+00   -0.1772401482E+00    0.3685780168E+00    0.2157918643E-03    0    0
   24    2    8    8    0    0    0.1973069572E+02    0.2945981026E+02   -0.3060927582E+02    0.4686603546E+02    0.1522074699E+01    0    0
  130    1   15   15    0    0    0.1139943123E+02    0.1702939034E+02   -0.1788960457E+02    0.2720722008E+02    0.4977200925E+00    0    0
  211    1   15   15    0    0    0.3331817627E+01    0.5173289776E+01   -0.4915178299E+01    0.7876699448E+01    0.1395679861E+00    0    0
  310    1   15   15    0    0    0.4999449730E+01    0.7257133484E+01   -0.7804495811E+01    0.1178212070E+02    0.4977200031E+00    0    0
</event>
<event>
   21 9999    1    0.9119999695E+02    0.7565275169E-02    0.1185000000E+00
   11   -1    0    0    0    0    0.0000000000E+00    0.0000000000E+00    0.8000000000E+02    0.8000000000E+02    0.5109988851E-03    0    0
  -11   -1    0    0    0    0    0.0000000000E+00    0.0000000000E+00   -0.8000000000E+02    0.8000000000E+02    0.5109988851E-03    0    0
  -24    2    1    2    0    0   -0.8489980698E+01   -0.1659942055E+02    0.8325076103E+01    0.7865673828E+02    0.7596022034E+02    0    0
   24    2    1    2    0    0    0.8638947487E+01    0.1652507210E+02   -0.7176554203E+01    0.7996866608E+02    0.7743238831E+02    0    0
   22    1    1    2    0    0   -0.1499428451E+00    0.7347732782E-01   -0.1209214568E+01    0.1220688939E+01    0.0000000000E+00    0    0
   22    1    1    2    0    0    0.3793844826E-05   -0.7452457567E-06    0.1072903872E+00    0.1072903872E+00    0.0000000000E+00    0    0
   22    1    1    2    0    0    0.9727635188E-03    0.8725632215E-03   -0.4659734294E-01    0.4661566392E-01    0.0000000000E+00    0    0
   15    2    3    3    0    0    0.1433171558E+02    0.1518163204E+02   -0.2107277489E+02    0.2971699333E+02    0.1777029991E+01    0    0
  -16    1    3    3    0    0   -0.2282169724E+02   -0.3178105354E+02    0.2939785004E+02    0.4893974686E+02    0.0000000000E+00    0    0
   16    1    4    4    0    0    0.1278985500E+02    0.3885298538E+02    0.1914147377E+02    0.4516116333E+02    0.0000000000E+00    0    0
  -15    2    4    4    0    0   -0.4150908470E+01   -0.2232791138E+02   -0.2631802750E+02    0.3480749893E+02    0.1777029991E+01    0    0
   16    1    8    8    0    0    0.4808602810E+01    0.4964394093E+01   -0.6975091934E+01    0.9819356918E+01    0.1952215825E-03    0    0
  -24    2    8    8    0    0    0.9523677826E+01    0.1021783638E+02   -0.1409851265E+02    0.1989880753E+02    0.1445627689E+01    0    0
 -211    1   13   13    0    0    0.6773445606E+00    0.4621188641E+00   -0.1101834297E+01    0.1380531669E+01    0.1395683289E+00    0    0
  111    1   13   13    0    0    0.8654329300E+01    0.9401835442E+01   -0.1246942139E+02    0.1785487747E+02    0.1349641979E+00    0    0
   22    1   13   13    0    0    0.1920025051E+00    0.3538803458E+00   -0.5272555947E+00    0.6633963585E+00    0.1239629928E-03    0    0
  -16    1   11   11    0    0   -0.1178610206E+01   -0.4562712669E+01   -0.5349689484E+01    0.7129281044E+01    0.4712965456E-03    0    0
   24    2   11   11    0    0   -0.2972461462E+01   -0.1776607704E+02   -0.2096937370E+02    0.2767958832E+02    0.1405697584E+01    0    0
  321    1   18   18    0    0   -0.1949515343E+01   -0.1046518230E+02   -0.1246444130E+02    0.1639898300E+02    0.4936670363E+00    0    0
  211    1   18   18    0    0   -0.5335595012E+00   -0.4403534412E+01   -0.4602444172E+01    0.6393572807E+01    0.1395684928E+00    0    0
 -211    1   18   18    0    0   -0.4893866479E+00   -0.2897360563E+01   -0.3902486801E+01    0.4887032032E+01    0.1395681500E+00    0    0
</event>
<event>
   20 9999    1    0.9119999695E+02    0.7565275169E-02    0.1185000000E+00
   11   -1    0    0    0    0    0.0000000000E+00    0.0000000000E+00    0.8000000000E+02    0.8000000000E+02    0.5109988851E-03    0    0
  -11   -1    0    0    0    0    0.0000000000E+00    0.0000000000E+00   -0.8000000000E+02    0.8000000000E+02    0.5109988851E-03    0    0
  -24    2    1    2    0    0   -0.5406795979E+01    0.9042529106E+01    0.2180747795E+02    0.8545188904E+02    0.8194789886E+02    0    0
   24    2    1    2    0    0    0.5406795979E+01   -0.9042529106E+01   -0.2180747795E+02    0.7454811096E+02    0.7050428772E+02    0    0
   15    2    3    3    0    0    0.1400323677E+02   -0.2609028816E+02    0.3241124725E+02    0.4393677902E+02    0.1777029991E+01    0    0
  -16    1    3    3    0    0   -0.1941003227E+02    0.3513281631E+02   -0.1060377121E+02    0.4151510620E+02    0.0000000000E+00    0    0
   16    1    4    4    0    0   -0.2479410744E+02   -0.2156519318E+02    0.3665052414E+01    0.3306414795E+02    0.0000000000E+00    0    0
  -15    2    4    4    0    0    0.3020090294E+02    0.1252266502E+02   -0.2547253036E+02    0.4148396301E+02    0.1777029991E+01    0    0
   16    1    5    5    0    0    0.5106718540E+01   -0.9453437805E+01    0.1206684017E+02    0.1615718651E+02    0.1364787604E-03    0    0
  -24    2    5    5    0    0    0.8897068977E+01   -0.1663787651E+02    0.2034568405E+02    0.2778132057E+02    0.1370478392E+01    0    0
 -211    1   10   10    0    0    0.1131331086E+01   -0.2523353338E+01    0.3306864262E+01    0.4313009739E+01    0.1395680308E+00    0    0
 -211    1   10   10    0    0    0.2251920938E+01   -0.4203256130E+01    0.4876182556E+01    0.6821667194E+01    0.1395680457E+00    0    0
 -211    1   10   10    0    0    0.9637763500E+00   -0.1553349972E+01    0.2225577593E+01    0.2883476257E+01    0.1395679861E+00    0    0
  211    1   10   10    0    0    0.2455729723E+01   -0.4295694828E+01    0.5193932533E+01    0.7174957275E+01    0.1395680010E+00    0    0
  211    1   10   10    0    0    0.2094310522E+01   -0.4062222004E+01    0.4743127346E+01    0.6588210583E+01    0.1395679861E+00    0    0
  -16    1    8    8    0    0    0.1290675640E+02    0.5034047604E+01   -0.1072310638E+02    0.1751887512E+02    0.3089669335E-03    0    0
   24    2    8    8    0    0    0.1729533577E+02    0.7489109993E+01   -0.1475042725E+02    0.2396672249E+02    0.1270145178E+01    0    0
  211    1   17   17    0    0    0.4707974911E+01    0.1758976102E+01   -0.4088709354E+01    0.6480435848E+01    0.1395682842E+00    0    0
  310    1   17   17    0    0    0.8138336182E+01    0.3521740913E+01   -0.7145779610E+01    0.1139934444E+02    0.4977200329E+00    0    0
  111    1   17   17    0    0    0.4449027061E+01    0.2208393812E+01   -0.3515939713E+01    0.6086944103E+01    0.1349643171E+00    0    0
</event>
<event>
   16 9999    1    0.9119999695E+02    0.7565275169E-02    0.1185000000E+00
   11   -1    0    0    0    0    0.0000000000E+00    0.0000000000E+00    0.8000000000E+02    0.8000000000E+02    0.5109988851E-03    0    0
  -11   -1    0    0    0    0    0.0000000000E+00    0.0000000000E+00   -0.8000000000E+02    0.8000000000E+02    0.5109988851E-03    0    0
  -24    2    1    2    0    0    0.8423473358E+01   -0.1599934006E+02    0.2649057961E+02    0.7268396759E+02    0.6522480011E+02    0    0
   24    2    1    2    0    0   -0.8423544884E+01    0.1599920559E+02   -0.2630045700E+02    0.8712590790E+02    0.8106959534E+02    0    0
   22    1    1    2    0    0    0.7134882617E-04    0.1346261124E-03   -0.1901225001E+00    0.1901225597E+00    0.0000000000E+00    0    0
   15    2    3    3    0    0    0.1563027954E+02   -0.2114751816E+02    0.4500801086E+02    0.5215747452E+02    0.1777029991E+01    0    0
  -16    1    3    3    0    0   -0.7206805706E+01    0.5148177624E+01   -0.1851743126E+02    0.2052649689E+02    0.0000000000E+00    0    0
   16    1    4    4    0    0   -0.1843828583E+02   -0.8245353699E+01    0.2339285088E+02    0.3090601349E+02    0.0000000000E+00    0    0
  -15    2    4    4    0    0    0.1001474094E+02    0.2424455833E+02   -0.4969330978E+02    0.5621989441E+02    0.1777029991E+01    0    0
   16    1    6    6    0    0    0.6807772636E+01   -0.8312370300E+01    0.1756076813E+02    0.2058693314E+02    0.1726334885E-03    0    0
 -323    2    6    6    0    0    0.8823122025E+01   -0.1283597946E+02    0.2744901466E+02    0.3157259178E+02    0.8776926398E+00    0    0
  111    1   11   11    0    0    0.4301565170E+01   -0.6044892788E+01    0.1260065842E+02    0.1462323475E+02    0.1349639744E+00    0    0
 -321    1   11   11    0    0    0.4521557331E+01   -0.6791087627E+01    0.1484835720E+02    0.1694935989E+02    0.4936670661E+00    0    0
  -16    1    9    9    0    0    0.4401639938E+01    0.1042604160E+02   -0.2274305344E+02    0.2540321350E+02    0.2441406250E-03    0    0
  -11    1    9    9    0    0    0.3431546688E+01    0.9509053230E+01   -0.1784262085E+02    0.2050748062E+02    0.5459150416E-03    0    0
   12    1    9    9    0    0    0.2181948900E+01    0.4310419559E+01   -0.9109591484E+01    0.1031141472E+02    0.7475249731E-04    0    0
</event>
<event>
   20 9999    1    0.9119999695E+02    0.7565275169E-02    0.1185000000E+00
   11   -1    0    0    0    0    0.0000000000E+00    0.0000000000E+00    0.8000000000E+02    0.8000000000E+02    0.5109988851E-03    0    0
  -11   -1    0    0    0    0    0.0000000000E+00    0.0000000000E+00   -0.8000000000E+02    0.8000000000E+02    0.5109988851E-03    0    0
  -24    2    1    2    0    0    0.2031367683E+02   -0.1569214535E+02    0.3831227875E+02    0.9251380920E+02    0.8020028687E+02    0    0
   24    2    1    2    0    0   -0.2031360626E+02    0.1569219780E+02   -0.3831357193E+02    0.6748489380E+02    0.4926858521E+02    0    0
   22    1    1    2    0    0   -0.6945295900E-04   -0.5249218157E-04    0.1292285626E-02    0.1295214752E-02    0.0000000000E+00    0    0
   15    2    3    3    0    0    0.4485319519E+02    0.1258086395E+02    0.1847435379E+02    0.5014525986E+02    0.1777029991E+01    0    0
  -16    1    3    3    0    0   -0.2453951836E+02   -0.2827301025E+02    0.1983792496E+02    0.4236855316E+02    0.0000000000E+00    0    0
   16    1    4    4    0    0    0.5268180370E+01    0.1736942482E+02    0.3423480272E+01    0.1847081184E+02    0.0000000000E+00    0    0
  -15    2    4    4    0    0   -0.2558178711E+02   -0.1677226782E+01   -0.4173705292E+02    0.4901408386E+02    0.1777029991E+01    0    0
   16    1    6    6    0    0    0.1180234718E+02    0.3157343149E+01    0.4730601788E+01    0.1310125160E+02    0.3872246598E-03    0    0
  -24    2    6    6    0    0    0.3305261612E+02    0.9424016953E+01    0.1374448109E+02    0.3704598236E+02    0.1485435843E+01    0    0
  221    1   11   11    0    0    0.1518896389E+02    0.4013634682E+01    0.6506759644E+01    0.1701331902E+02    0.5488000512E+00    0    0
 -211    1   11   11    0    0    0.9551198959E+01    0.2881299019E+01    0.3503492594E+01    0.1057455635E+02    0.1395679563E+00    0    0
  111    1   11   11    0    0    0.8312455177E+01    0.2529083252E+01    0.3734229088E+01    0.9458110809E+01    0.1349640340E+00    0    0
  -16    1    9    9    0    0   -0.8697160721E+01   -0.5711411238E+00   -0.1398694706E+02    0.1648033714E+02    0.3286843712E-03    0    0
   24    2    9    9    0    0   -0.1688563347E+02   -0.1106151700E+01   -0.2775174904E+02    0.3253567505E+02    0.1436126113E+01    0    0
  111    1   16   16    0    0   -0.5693257332E+01   -0.1373640746E+00   -0.9776123047E+01    0.1131471825E+02    0.1349630356E+00    0    0
  111    1   16   16    0    0   -0.1582649112E+01   -0.2849151492E+00   -0.2721552849E+01    0.3164019585E+01    0.1349636912E+00    0    0
  111    1   16   16    0    0   -0.6395000219E+00    0.1613414660E-01   -0.1256856561E+01    0.1416730046E+01    0.1349641085E+00    0    0
  211    1   16   16    0    0   -0.8970230103E+01   -0.7000067830E+00   -0.1399722004E+02    0.1664021301E+02    0.1395680159E+00    0    0
</event>
<event>
   20 9999    1    0.9119999695E+02    0.7565275169E-02    0.1185000000E+00
   11   -1    0    0    0    0    0.0000000000E+00    0.0000000000E+00    0.8000000000E+02    0.8000000000E+02    0.5109988851E-03    0    0
  -11   -1    0    0    0    0    0.0000000000E+00    0.0000000000E+00   -0.8000000000E+02    0.8000000000E+02    0.5109988851E-03    0    0
  -24    2    1    2    0    0   -0.7582264900E+01    0.6690326929E+00   -0.3401211929E+02    0.7040412903E+02    0.6117171860E+02    0    0
   24    2    1    2    0    0    0.7582269669E+01   -0.6690297723E+00    0.3401128387E+02    0.8959197998E+02    0.8253495026E+02    0    0
   22    1    1    2    0    0   -0.4836403150E-05   -0.2827667004E-05    0.2361530438E-02    0.2361537190E-02    0.0000000000E+00    0    0
   22    1    1    2    0    0   -0.1351235284E-06   -0.5945557646E-07   -0.1525431406E-02    0.1525431406E-02    0.0000000000E+00    0    0
   15    2    3    3    0    0    0.1571504879E+02   -0.2043718529E+02   -0.2614262342E+01    0.2597370720E+02    0.1777029991E+01    0    0
  -16    1    3    3    0    0   -0.2329731369E+02    0.2110621643E+02   -0.3139785576E+02    0.4443042374E+02    0.0000000000E+00    0    0
   16    1    4    4    0    0    0.4368578339E+02    0.1038693905E+02    0.2141069412E+02    0.4974689865E+02    0.0000000000E+00    0    0
  -15    2    4    4    0    0   -0.3610351181E+02   -0.1105596924E+02    0.1260058784E+02    0.3984508514E+02    0.1777029991E+01    0    0
   16    1    7    7    0    0    0.1540424585E+01   -0.2499655724E+01   -0.1400874853E+00    0.2939525604E+01    0.3532665141E-03    0    0
  -24    2    7    7    0    0    0.1417524338E+02   -0.1793833351E+02   -0.2474277735E+01    0.2303520584E+02    0.1333142400E+01    0    0
 -211    1   12   12    0    0    0.7984295368E+01   -0.9975076675E+01   -0.1655808926E+01    0.1288457680E+02    0.1395679116E+00    0    0
  111    1   12   12    0    0    0.1607156515E+01   -0.2614352703E+01   -0.3285671473E+00    0.3089330435E+01    0.1349640638E+00    0    0
   22    1   12   12    0    0    0.4583790779E+01   -0.5348903179E+01   -0.4899015427E+00    0.7061296463E+01    0.1057159898E-03    0    0
  -16    1   10   10    0    0   -0.8509770393E+01   -0.2410526037E+01    0.2837434530E+01    0.9288587570E+01    0.6118755555E-03    0    0
   24    2   10   10    0    0   -0.2759516144E+02   -0.8645877838E+01    0.9763648033E+01    0.3055806160E+02    0.1490710855E+01    0    0
  310    1   17   17    0    0   -0.5853183270E+01   -0.1803021669E+01    0.2199765205E+01    0.6526663303E+01    0.4977200329E+00    0    0
  211    1   17   17    0    0   -0.1140962982E+02   -0.3733839989E+01    0.3797270775E+01    0.1259205914E+02    0.1395681500E+00    0    0
  310    1   17   17    0    0   -0.1033234692E+02   -0.3109016180E+01    0.3766612291E+01    0.1143933868E+02    0.4977199733E+00    0    0
</event>
<event>
   16 9999    1    0.9119999695E+02    0.7565275169E-02    0.1185000000E+00
   11   -1    0    0    0    0    0.0000000000E+00    0.0000000000E+00    0.8000000000E+02    0.8000000000E+02    0.5109988851E-03    0    0
  -11   -1    0    0    0    0    0.0000000000E+00    0.0000000000E+00   -0.8000000000E+02    0.8000000000E+02    0.5109988851E-03    0    0
  -24    2    1    2    0    0   -0.4423946857E+01    0.5934349537E+01    0.1253207779E+02    0.7919585419E+02    0.7784691620E+02    0    0
   24    2    1    2    0    0    0.4423946857E+01   -0.5934349537E+01   -0.1253207779E+02    0.8080414581E+02    0.7948250580E+02    0    0
   15    2    3    3    0    0    0.2909690094E+02    0.1916842461E+02    0.2285467339E+02    0.4170793915E+02    0.1777029991E+01    0    0
  -16    1    3    3    0    0   -0.3352084732E+02   -0.1323407555E+02   -0.1032259560E+02    0.3748791885E+02    0.0000000000E+00    0    0
   16    1    4    4    0    0    0.6469856739E+01    0.1666976929E+02    0.2863611603E+02    0.3376044083E+02    0.0000000000E+00    0    0
  -15    2    4    4    0    0   -0.2045910120E+01   -0.2260412025E+02   -0.4116819382E+02    0.4704370117E+02    0.1777029991E+01    0    0
   16    1    5    5    0    0    0.2450539112E+01    0.2007778883E+01    0.2230998516E+01    0.3874747992E+01    0.9650505672E-04    0    0
  -24    2    5    5    0    0    0.2664750671E+02    0.1716139984E+02    0.2062457466E+02    0.3783483124E+02    0.1223971725E+01    0    0
 -321    1   10   10    0    0    0.1734751320E+02    0.1151231861E+02    0.1342495441E+02    0.2477786827E+02    0.4936669469E+00    0    0
  310    1   10   10    0    0    0.9299990654E+01    0.5649080276E+01    0.7199617863E+01    0.1305695820E+02    0.4977199137E+00    0    0
  -16    1    8    8    0    0   -0.7174221277E+00   -0.8802680016E+01   -0.1582088566E+02    0.1811911392E+02    0.9406149184E-04    0    0
   24    2    8    8    0    0   -0.1328568578E+01   -0.1380233002E+02   -0.2534893036E+02    0.2892644310E+02    0.1378912330E+01    0    0
  321    1   14   14    0    0   -0.3646868467E+00   -0.3684394360E+01   -0.7569404602E+01    0.8440814972E+01    0.4936669171E+00    0    0
  310    1   14   14    0    0   -0.9638815522E+00   -0.1011793327E+02   -0.1777952194E+02    0.2048562241E+02    0.4977200329E+00    0    0
</event>
<event>
   18 9999    1    0.9119999695E+02    0.7565275169E-02    0.1185000000E+00
   11   -1    0    0    0    0    0.0000000000E+00    0.0000000000E+00    0.8000000000E+02    0.8000000000E+02    0.5109988851E-03    0    0
  -11   -1    0    0    0    0    0.0000000000E+00    0.0000000000E+00   -0.8000000000E+02    0.8000000000E+02    0.5109988851E-03    0    0
  -24    2    1    2    0    0    0.4863622665E+01   -0.9617033958E+01   -0.8711606026E+01    0.7843860626E+02    0.7720479584E+02    0    0
   24    2    1    2    0    0   -0.4955718994E+01    0.9486012459E+01    0.7761519909E+01    0.8056546021E+02    0.7947332001E+02    0    0
   22    1    1    2    0    0   -0.2658019075E-03   -0.8910363249E-04    0.6925376058E+00    0.6925376654E+00    0.0000000000E+00    0    0
   22    1    1    2    0    0    0.9236213565E-01    0.1311099380E+00    0.2575483024E+00    0.3034002483E+00    0.0000000000E+00    0    0
   15    2    3    3    0    0    0.3861488724E+02   -0.1856383896E+02   -0.7252572060E+01    0.4349118805E+02    0.1777029991E+01    0    0
  -16    1    3    3    0    0   -0.3375126648E+02    0.8946805000E+01   -0.1459033847E+01    0.3494741821E+02    0.0000000000E+00    0    0
   16    1    4    4    0    0   -0.2207376862E+02   -0.2435769653E+02   -0.1517681408E+02    0.3620613861E+02    0.0000000000E+00    0    0
  -15    2    4    4    0    0    0.1711805153E+02    0.3384370804E+02    0.2293833351E+02    0.4435932159E+02    0.1777029991E+01    0    0
   16    1    7    7    0    0    0.1935268402E+02   -0.1011099720E+02   -0.4067021370E+01    0.2221034241E+02    0.3662109375E-03    0    0
 -321    1    7    7    0    0    0.1926372528E+02   -0.8453573227E+01   -0.3185836792E+01    0.2128255844E+02    0.4936670065E+00    0    0
  -16    1   10   10    0    0    0.4874558449E+01    0.1072360325E+02    0.7147619247E+01    0.1377844143E+02    0.1356230787E-03    0    0
   24    2   10   10    0    0    0.1224416637E+02    0.2312143707E+02    0.1579161835E+02    0.3058262444E+02    0.1183752656E+01    0    0
  211    1   14   14    0    0    0.4614438534E+01    0.8685491562E+01    0.5807248592E+01    0.1142253971E+02    0.1395679861E+00    0    0
  211    1   14   14    0    0    0.4782072067E+01    0.9253590584E+01    0.6712903500E+01    0.1239272785E+02    0.1395680904E+00    0    0
 -211    1   14   14    0    0    0.2239970684E+01    0.3939386129E+01    0.2487179995E+01    0.5171245098E+01    0.1395678818E+00    0    0
  111    1   14   14    0    0    0.6076845527E+00    0.1242968917E+01    0.7842851877E+00    0.1596111178E+01    0.1349640191E+00    0    0
</event>
<event>
   20 9999    1    0.9119999695E+02    0.7565275169E-02    0.1185000000E+00
   11   -1    0    0    0    0    0.0000000000E+00    0.0000000000E+00    0.8000000000E+02    0.8000000000E+02    0.5109988851E-03    0    0
  -11   -1    0    0    0    0    0.0000000000E+00    0.0000000000E+00   -0.8000000000E+02    0.8000000000E+02    0.5109988851E-03    0    0
  -24    2    1    2    0    0   -0.5113924980E+01    0.2558836699E+01   -0.2677563429E+01    0.8027454376E+02    0.8002583313E+02    0    0
   24    2    1    2    0    0    0.5114474297E+01   -0.2558482409E+01    0.2736096621E+01    0.7963540649E+02    0.7938266754E+02    0    0
   22    1    1    2    0    0   -0.7043201913E-04   -0.6475514965E-04   -0.7428621501E-01    0.7428628206E-01    0.0000000000E+00    0    0
   22    1    1    2    0    0   -0.4789426748E-03   -0.2895158832E-03    0.1575309783E-01    0.1576303691E-01    0.0000000000E+00    0    0
   15    2    3    3    0    0   -0.1819939041E+02   -0.3276914215E+02    0.1265233707E+02    0.3960144043E+02    0.1777029991E+01    0    0
  -16    1    3    3    0    0    0.1308546638E+02    0.3532798004E+02   -0.1532989979E+02    0.4067310333E+02    0.0000000000E+00    0    0
   16    1    4    4    0    0   -0.2001268768E+02    0.5156894326E+00    0.3394665909E+02    0.3941001511E+02    0.0000000000E+00    0    0
  -15    2    4    4    0    0    0.2512716103E+02   -0.3074171782E+01   -0.3121056366E+02    0.4022538757E+02    0.1777029991E+01    0    0
   16    1    7    7    0    0   -0.2932178378E+00   -0.4562075138E+00    0.4891996086E-01    0.5445139408E+00    0.5390478764E-03    0    0
*****    2    7    7    0    0   -0.1790688896E+02   -0.3231422424E+02    0.1260391426E+02    0.3905848312E+02    0.1356721640E+01    0    0
 -211    1   12   12    0    0   -0.3808718681E+01   -0.6150986195E+01    0.2580698490E+01    0.7682476997E+01    0.1395683140E+00    0    0
 -211    1   12   12    0    0   -0.2677799463E+01   -0.5413465977E+01    0.1797396541E+01    0.6302883625E+01    0.1395681649E+00    0    0
  211    1   12   12    0    0   -0.1142037296E+02   -0.2074977493E+02    0.8225820541E+01    0.2507312584E+02    0.1395682395E+00    0    0
  -16    1   10   10    0    0    0.4789462566E+01   -0.3027884066E+00   -0.5911133766E+01    0.7613943100E+01    0.4211095802E-03    0    0
   24    2   10   10    0    0    0.2033868599E+02   -0.2771504402E+01   -0.2530065727E+02    0.3261302567E+02    0.1463848591E+01    0    0
  211    1   17   17    0    0    0.3736784220E+01   -0.8291921020E+00   -0.4526682854E+01    0.5929709435E+01    0.1395678818E+00    0    0
  310    1   17   17    0    0    0.6468932629E+01   -0.8451440334E+00   -0.8583840370E+01    0.1079311752E+02    0.4977199733E+00    0    0
  111    1   17   17    0    0    0.1013297176E+02   -0.1097168326E+01   -0.1219013596E+02    0.1589020157E+02    0.1349640638E+00    0    0
</event>
<event>
   18 9999    1    0.9119999695E+02    0.7565275169E-02    0.1185000000E+00
   11   -1    0    0    0    0    0.0000000000E+00    0.0000000000E+00    0.8000000000E+02    0.8000000000E+02    0.5109988851E-03    0    0
  -11   -1    0    0    0    0    0.0000000000E+00    0.0000000000E+00   -0.8000000000E+02    0.8000000000E+02    0.5109988851E-03    0    0
  -24    2    1    2    0    0    0.1083896637E+01    0.8994438171E+01    0.1825835037E+02    0.7978664398E+02    0.7713926697E+02    0    0
   24    2    1    2    0    0   -0.1083896637E+01   -0.8994438171E+01   -0.1825835037E+02    0.8021335602E+02    0.7758053589E+02    0    0
   15    2    3    3    0    0    0.1266614914E+02   -0.2720883751E+02    0.2741576576E+02    0.4068825531E+02    0.1777029991E+01    0    0
  -16    1    3    3    0    0   -0.1158225250E+02    0.3620327759E+02   -0.9157415390E+01    0.3909838867E+02    0.0000000000E+00    0    0
   16    1    4    4    0    0    0.3334708023E+02    0.1000978088E+02   -0.2115361786E+02    0.4073940277E+02    0.0000000000E+00    0    0
  -15    2    4    4    0    0   -0.3443097687E+02   -0.1900421906E+02    0.2895267487E+01    0.3947395325E+02    0.1777029991E+01    0    0
   16    1    5    5    0    0    0.3007705212E+01   -0.6611396790E+01    0.6863883495E+01    0.9993485451E+01    0.5643689656E-03    0    0
  -24    2    5    5    0    0    0.9658942223E+01   -0.2059851265E+02    0.2055295944E+02    0.3069637108E+02    0.1499735117E+01    0    0
  310    1   10   10    0    0    0.2682818413E+01   -0.6155465126E+01    0.6337496281E+01    0.9246559143E+01    0.4977200627E+00    0    0
 -211    1   10   10    0    0    0.4589891434E+00   -0.9289290905E+00    0.1070015430E+01    0.1495992184E+01    0.1395678520E+00    0    0
  310    1   10   10    0    0    0.6517134190E+01   -0.1351411533E+02    0.1314544678E+02    0.1995381737E+02    0.4977200627E+00    0    0
  -16    1    8    8    0    0   -0.1296615958E+01   -0.8822708130E+00    0.2026916146E+00    0.1581359744E+01    0.5303389626E-03    0    0
   24    2    8    8    0    0   -0.3313571548E+02   -0.1812269592E+02    0.2692689657E+01    0.3789414597E+02    0.1519191384E+01    0    0
  321    1   15   15    0    0   -0.2106110001E+02   -0.1120666313E+02    0.1677406669E+01    0.2392104912E+02    0.4936670363E+00    0    0
  211    1   15   15    0    0   -0.6154969692E+01   -0.3600420952E+01    0.6123685241E+00    0.7158292770E+01    0.1395679116E+00    0    0
 -321    1   15   15    0    0   -0.5919642925E+01   -0.3315610170E+01    0.4029142559E+00    0.6814799786E+01    0.4936670363E+00    0    0
</event>
<event>
   22 9999    1    0.9119999695E+02    0.7565275169E-02    0.1185000000E+00
   11   -1    0    0    0    0    0.0000000000E+00    0.0000000000E+00    0.8000000000E+02    0.8000000000E+02    0.5109988851E-03    0    0
  -11   -1    0    0    0    0    0.0000000000E+00    0.0000000000E+00   -0.8000000000E+02    0.8000000000E+02    0.5109988851E-03    0    0
  -24    2    1    2    0    0   -0.8067332268E+01   -0.7797087669E+01    0.4986066818E+01    0.7622459412E+02    0.7522932434E+02    0    0
   24    2    1    2    0    0    0.8066581726E+01    0.7796923161E+01   -0.4845253468E+01    0.8263412476E+02    0.8172551727E+02    0    0
   22    1    1    2    0    0    0.2876215440E-03    0.3264027182E-03   -0.6410467029E+00    0.6410468817E+00    0.0000000000E+00    0    0
   22    1    1    2    0    0    0.4626628652E-03   -0.1622054551E-03    0.5002334118E+00    0.5002336502E+00    0.0000000000E+00    0    0
   15    2    3    3    0    0    0.8463023186E+01   -0.1927626419E+02    0.3120795250E+02    0.3768675613E+02    0.1777029991E+01    0    0
  -16    1    3    3    0    0   -0.1801004982E+02    0.1386088085E+02   -0.2731089783E+02    0.3552985382E+02    0.0000000000E+00    0    0
   22    1    3    3    0    0    0.1479694009E+01   -0.2381702900E+01    0.1089011669E+01    0.3007981062E+01    0.0000000000E+00    0    0
   16    1    4    4    0    0    0.4233652878E+02   -0.7486145973E+01    0.5833806038E+01    0.4338729477E+02    0.0000000000E+00    0    0
  -15    2    4    4    0    0   -0.3325529861E+02    0.1410393238E+02   -0.9847348213E+01    0.3748284912E+02    0.1777029991E+01    0    0
   22    1    4    4    0    0   -0.1014651060E+01    0.1179136634E+01   -0.8317115307E+00    0.1763979673E+01    0.0000000000E+00    0    0
   16    1    7    7    0    0    0.2527019978E+01   -0.5453264713E+01    0.8374443054E+01    0.1030801773E+02    0.6573687424E-03    0    0
  -24    2    7    7    0    0    0.5936324596E+01   -0.1382373047E+02    0.2283468628E+02    0.2738016319E+02    0.1383724332E+01    0    0
 -211    1   14   14    0    0    0.1460909128E+01   -0.3823968649E+01    0.6977321148E+01    0.8090703964E+01    0.1395679563E+00    0    0
  130    1   14   14    0    0    0.2775393486E+01   -0.6684456348E+01    0.1047510433E+02    0.1274207020E+02    0.4977200925E+00    0    0
  111    1   14   14    0    0    0.1700021386E+01   -0.3315304995E+01    0.5382259369E+01    0.6547385693E+01    0.1349639446E+00    0    0
  -16    1   11   11    0    0   -0.5481870651E+01    0.1985552192E+01   -0.1752843976E+01    0.6088167667E+01    0.3908156941E-03    0    0
   24    2   11   11    0    0   -0.2777468491E+02    0.1211891556E+02   -0.8094877243E+01    0.3139609909E+02    0.1373578429E+01    0    0
  221    1   19   19    0    0   -0.5624468327E+01    0.2422587395E+01   -0.1564305186E+01    0.6344430923E+01    0.5488000512E+00    0    0
  211    1   19   19    0    0   -0.6969261646E+01    0.3125247955E+01   -0.2265991449E+01    0.7968185425E+01    0.1395680308E+00    0    0
  111    1   19   19    0    0   -0.1518095589E+02    0.6571080208E+01   -0.4264580727E+01    0.1708348274E+02    0.1349639893E+00    0    0
</event>
<event>
   24 9999    1    0.9119999695E+02    0.7565275169E-02    0.1185000000E+00
   11   -1    0    0    0    0    0.0000000000E+00    0.0000000000E+00    0.8000000000E+02    0.8000000000E+02    0.5109988851E-03    0    0
  -11   -1    0    0    0    0    0.0000000000E+00    0.0000000000E+00   -0.8000000000E+02    0.8000000000E+02    0.5109988851E-03    0    0
  -24    2    1    2    0    0   -0.3231805325E+01    0.2140366316E+01    0.4369715214E+01    0.7975392151E+02    0.7953972626E+02    0    0
   24    2    1    2    0    0    0.3231805325E+01   -0.2140366316E+01   -0.4369715214E+01    0.8024607849E+02    0.8003319550E+02    0    0
   15    2    3    3    0    0   -0.1014908123E+02    0.2830535889E+02   -0.2548587036E+02    0.3945737839E+02    0.1777029991E+01    0    0
  -16    1    3    3    0    0    0.6917276382E+01   -0.2616499329E+02    0.2985558510E+02    0.4029654694E+02    0.0000000000E+00    0    0
   16    1    4    4    0    0   -0.1638216019E+02   -0.2600393677E+02    0.2343351746E+02    0.3864854050E+02    0.0000000000E+00    0    0
  -15    2    4    4    0    0    0.1961396408E+02    0.2386356926E+02   -0.2780323219E+02    0.4159753799E+02    0.1777029991E+01    0    0
   16    1    5    5    0    0   -0.1658338904E+01    0.3983857393E+01   -0.3503304482E+01    0.5558268547E+01    0.5285799489E-04    0    0
  -24    2    5    5    0    0   -0.8491142273E+01    0.2432261658E+02   -0.2198357010E+02    0.3390066147E+02    0.1512757301E+01    0    0
 -211    1   10   10    0    0   -0.1125327706E+01    0.3117418766E+01   -0.2807432413E+01    0.4345781803E+01    0.1395680010E+00    0    0
 -211    1   10   10    0    0   -0.1073925257E+01    0.3553794622E+01   -0.3208166361E+01    0.4908623219E+01    0.1395679712E+00    0    0
 -211    1   10   10    0    0   -0.2428401470E+01    0.6430812836E+01   -0.6225393772E+01    0.9275100708E+01    0.1395678818E+00    0    0
  211    1   10   10    0    0   -0.3537546694E+00    0.9812273383E+00   -0.9599587321E+00    0.1424412012E+01    0.1395680010E+00    0    0
  211    1   10   10    0    0   -0.2552400112E+01    0.7608939648E+01   -0.6326655865E+01    0.1022040939E+02    0.1395679116E+00    0    0
  111    1   10   10    0    0   -0.9573331475E+00    0.2630423784E+01   -0.2455962896E+01    0.3726336479E+01    0.1349640042E+00    0    0
  -16    1    8    8    0    0    0.3952426910E+00    0.6407280564E+00   -0.7638040185E+00    0.1072448492E+01    0.0000000000E+00    0    0
   24    2    8    8    0    0    0.1921949387E+02    0.2322378159E+02   -0.2704052162E+02    0.4052672577E+02    0.1578839540E+01    0    0
  211    1   18   18    0    0    0.8890684128E+01    0.1069244957E+02   -0.1263308144E+02    0.1878794861E+02    0.1395679265E+00    0    0
  211    1   18   18    0    0    0.2938250303E+01    0.3794355392E+01   -0.4125438213E+01    0.6330020905E+01    0.1395679861E+00    0    0
 -211    1   18   18    0    0    0.2139491320E+01    0.2551171780E+01   -0.3032283783E+01    0.4505566120E+01    0.1395680010E+00    0    0
  111    1   18   18    0    0    0.1604561329E+01    0.1909369349E+01   -0.2354535103E+01    0.3432543993E+01    0.1349640042E+00    0    0
  111    1   18   18    0    0    0.2921485603E+00    0.4298705161E+00   -0.5058401227E+00    0.7377187014E+00    0.1349639148E+00    0    0
  111    1   18   18    0    0    0.3354357719E+01    0.3846564054E+01   -0.4389343739E+01    0.6732928276E+01    0.1349639595E+00    0    0
</event>
<event>
   17 9999    1    0.9119999695E+02    0.7565275169E-02    0.1185000000E+00
   11   -1    0    0    0    0    0.0000000000E+00    0.0000000000E+00    0.8000000000E+02    0.8000000000E+02    0.5109988851E-03    0    0
  -11   -1    0    0    0    0    0.0000000000E+00    0.0000000000E+00   -0.8000000000E+02    0.8000000000E+02    0.5109988851E-03    0    0
  -24    2    1    2    0    0   -0.1024188161E+01   -0.5508161068E+01    0.6459081173E+01    0.7805559540E+02    0.7758587646E+02    0    0
   24    2    1    2    0    0    0.1024188161E+01    0.5508161068E+01   -0.6459081173E+01    0.8194440460E+02    0.8149709320E+02    0    0
   15    2    3    3    0    0    0.1527209663E+02    0.2282940292E+02    0.2771747589E+02    0.3906193542E+02    0.1777029991E+01    0    0
  -16    1    3    3    0    0   -0.1629628372E+02   -0.2833756256E+02   -0.2125839424E+02    0.3899366379E+02    0.0000000000E+00    0    0
   16    1    4    4    0    0    0.1823243904E+02    0.3682479477E+02    0.1041045761E+02    0.4238944244E+02    0.0000000000E+00    0    0
  -15    2    4    4    0    0   -0.1720825005E+02   -0.3131663322E+02   -0.1686953926E+02    0.3955495834E+02    0.1777029991E+01    0    0
   16    1    5    5    0    0    0.7323372841E+01    0.1160006046E+02    0.1327404499E+02    0.1908909225E+02    0.1220703125E-03    0    0
  -24    2    5    5    0    0    0.7949324131E+01    0.1123023891E+02    0.1444452190E+02    0.1997438049E+02    0.1010746598E+01    0    0
 -211    1   10   10    0    0    0.2122766495E+01    0.2822305679E+01    0.3523125887E+01    0.4990334988E+01    0.1395683289E+00    0    0
  111    1   10   10    0    0    0.4604670525E+01    0.7004173279E+01    0.8619856834E+01    0.1202420807E+02    0.1349640042E+00    0    0
   22    1   10   10    0    0    0.1221886873E+01    0.1403759837E+01    0.2301539183E+01    0.2959836483E+01    0.1495049946E-03    0    0
  -16    1    8    8    0    0   -0.1048781013E+02   -0.1844470596E+02   -0.9569661140E+01    0.2327616310E+02    0.1220703125E-03    0    0
  323    2    8    8    0    0   -0.6721117973E+01   -0.1287316036E+02   -0.7300541401E+01    0.1628035164E+02    0.9274893999E+00    0    0
  211    1   15   15    0    0   -0.2026074171E+01   -0.4369728565E+01   -0.2655096531E+01    0.5501683235E+01    0.1395676881E+00    0    0
  130    1   15   15    0    0   -0.4695043087E+01   -0.8503431320E+01   -0.4645444393E+01    0.1077866650E+02    0.4977199733E+00    0    0
</event>
<event>
   17 9999    1    0.9119999695E+02    0.7565275169E-02    0.1185000000E+00
   11   -1    0    0    0    0    0.0000000000E+00    0.0000000000E+00    0.8000000000E+02    0.8000000000E+02    0.5109988851E-03    0    0
  -11   -1    0    0    0    0    0.0000000000E+00    0.0000000000E+00   -0.8000000000E+02    0.8000000000E+02    0.5109988851E-03    0    0
  -24    2    1    2    0    0    0.7958003521E+01    0.1454540920E+02    0.2912734032E+02    0.7206520081E+02    0.6379727173E+02    0    0
   24    2    1    2    0    0   -0.7828745842E+01   -0.1452844238E+02   -0.2886799240E+02    0.8764453125E+02    0.8109153748E+02    0    0
   22    1    1    2    0    0   -0.1292575896E+00   -0.1696644537E-01   -0.2593488991E+00    0.2902709842E+00    0.0000000000E+00    0    0
   15    2    3    3    0    0   -0.2517006111E+02    0.8551432610E+01    0.2760515976E+02    0.3836484909E+02    0.1777029991E+01    0    0
  -16    1    3    3    0    0    0.3312806320E+02    0.5993976116E+01    0.1522180319E+01    0.3370034790E+02    0.0000000000E+00    0    0
   16    1    4    4    0    0   -0.2123022079E+02   -0.1005030346E+02    0.2358874321E+02    0.3328903198E+02    0.0000000000E+00    0    0
  -15    2    4    4    0    0    0.1340147400E+02   -0.4478138924E+01   -0.5245673752E+02    0.5435549927E+02    0.1777029991E+01    0    0
   16    1    6    6    0    0   -0.7835388660E+01    0.2524833918E+01    0.7857773781E+01    0.1138036537E+02    0.1220703125E-03    0    0
 -323    2    6    6    0    0   -0.1733566284E+02    0.6026935577E+01    0.1974847412E+02    0.2698599434E+02    0.1180062294E+01    0    0
 -211    1   11   11    0    0   -0.7733350277E+01    0.2190546513E+01    0.8699154854E+01    0.1184474468E+02    0.1395679116E+00    0    0
  310    1   11   11    0    0   -0.9602313995E+01    0.3836389065E+01    0.1104931927E+02    0.1514125156E+02    0.4977199435E+00    0    0
  -16    1    9    9    0    0    0.6501609325E+01   -0.2382659435E+01   -0.2457488060E+02    0.2553179741E+02    0.6103515625E-04    0    0
   24    2    9    9    0    0    0.6900392056E+01   -0.2095655441E+01   -0.2788392067E+02    0.2882583809E+02    0.1186938167E+01    0    0
  321    1   15   15    0    0    0.1847816586E+01   -0.3932279050E+00   -0.7227764606E+01    0.7486877918E+01    0.4936669767E+00    0    0
  130    1   15   15    0    0    0.5052576542E+01   -0.1702427864E+01   -0.2065616035E+02    0.2133896446E+02    0.4977200627E+00    0    0
</event>
<event>
   22 9999    1    0.9119999695E+02    0.7565275169E-02    0.1185000000E+00
   11   -1    0    0    0    0    0.0000000000E+00    0.0000000000E+00    0.8000000000E+02    0.8000000000E+02    0.5109988851E-03    0    0
  -11   -1    0    0    0    0    0.0000000000E+00    0.0000000000E+00   -0.8000000000E+02    0.8000000000E+02    0.5109988851E-03    0    0
  -24    2    1    2    0    0    0.7627431154E+00   -0.1379012108E+02   -0.7085662484E+00    0.8038618469E+02    0.7918767548E+02    0    0
   24    2    1    2    0    0   -0.7196708918E+00    0.1394258690E+02    0.1052839398E+01    0.7923430634E+02    0.7798751831E+02    0    0
   22    1    1    2    0    0   -0.4259959236E-01   -0.1520106047E+00   -0.3398440182E+00    0.3747211099E+00    0.0000000000E+00    0    0
   22    1    1    2    0    0   -0.4596919753E-03   -0.4495405010E-03   -0.4586260766E-02    0.4631110933E-02    0.0000000000E+00    0    0
   22    1    1    2    0    0   -0.1296821847E-04   -0.6476329872E-05    0.1570581662E-03    0.1577256626E-03    0.0000000000E+00    0    0
   15    2    3    3    0    0    0.2635453033E+02   -0.3724442673E+02   -0.9976520538E+00    0.4567123795E+02    0.1777029991E+01    0    0
  -16    1    3    3    0    0   -0.2559178734E+02    0.2345430756E+02    0.2890858054E+00    0.3471495056E+02    0.0000000000E+00    0    0
   16    1    4    4    0    0   -0.3722317505E+02    0.6317846298E+01   -0.1210696888E+02    0.3964919662E+02    0.0000000000E+00    0    0
  -15    2    4    4    0    0    0.3650350571E+02    0.7624741077E+01    0.1315980816E+02    0.3958510971E+02    0.1777029991E+01    0    0
   16    1    8    8    0    0    0.9755266190E+01   -0.1305570221E+02    0.2397985756E+00    0.1629951096E+02    0.2441406250E-03    0    0
 -213    2    8    8    0    0    0.1660030174E+02   -0.2419019127E+02   -0.1237489939E+01    0.2937352371E+02    0.7328341007E+00    0    0
 -211    1   13   13    0    0    0.6571270466E+01   -0.1001476574E+02   -0.2834933698E+00    0.1198236084E+02    0.1395679861E+00    0    0
  111    1   13   13    0    0    0.1002903271E+02   -0.1417542744E+02   -0.9539965391E+00    0.1739116287E+02    0.1349642873E+00    0    0
  -16    1   11   11    0    0    0.3987251997E+01    0.9134403467E+00    0.1391319036E+01    0.4320684910E+01    0.1868812433E-04    0    0
   24    2   11   11    0    0    0.3251768875E+02    0.6711600780E+01    0.1176900673E+02    0.3526597977E+02    0.1653569579E+01    0    0
  211    1   17   17    0    0    0.4696605682E+01    0.1191037655E+01    0.1805321932E+01    0.5172556400E+01    0.1395679265E+00    0    0
  211    1   17   17    0    0    0.6416795254E+01    0.1498328447E+01    0.2344540119E+01    0.6995469570E+01    0.1395679712E+00    0    0
  211    1   17   17    0    0    0.5968849182E+01    0.1078189492E+01    0.1701413751E+01    0.6301106453E+01    0.1395678520E+00    0    0
 -211    1   17   17    0    0    0.5610289574E+01    0.9270312786E+00    0.2060958385E+01    0.6049939156E+01    0.1395679861E+00    0    0
 -211    1   17   17    0    0    0.9825148582E+01    0.2017014027E+01    0.3856772423E+01    0.1074690914E+02    0.1395679861E+00    0    0
</event>
<event>
   21 9999    1    0.9119999695E+02    0.7565275169E-02    0.1185000000E+00
   11   -1    0    0    0    0    0.0000000000E+00    0.0000000000E+00    0.8000000000E+02    0.8000000000E+02    0.5109988851E-03    0    0
  -11   -1    0    0    0    0    0.0000000000E+00    0.0000000000E+00   -0.8000000000E+02    0.8000000000E+02    0.5109988851E-03    0    0
  -24    2    1    2    0    0   -0.1786078072E+02    0.1496612263E+02    0.1442836666E+02    0.7376302338E+02    0.6848221588E+02    0    0
   24    2    1    2    0    0    0.1786078072E+02   -0.1496613026E+02   -0.1379049492E+02    0.8559910583E+02    0.8120366669E+02    0    0
   22    1    1    2    0    0   -0.1499800639E-07    0.7524854482E-05   -0.6378715038E+00    0.6378715038E+00    0.0000000000E+00    0    0
   15    2    3    3    0    0   -0.3973970032E+02   -0.6947123051E+01    0.1417223549E+02    0.4279621887E+02    0.1777029991E+01    0    0
  -16    1    3    3    0    0    0.2187891960E+02    0.2191324615E+02    0.2561309636E+00    0.3096680641E+02    0.0000000000E+00    0    0
   16    1    4    4    0    0    0.1467995548E+02   -0.5231990814E+01    0.3362331772E+02    0.3705944443E+02    0.0000000000E+00    0    0
  -15    2    4    4    0    0    0.3180824995E+01   -0.9734139442E+01   -0.4741381073E+02    0.4853965759E+02    0.1777029991E+01    0    0
   16    1    6    6    0    0   -0.5358986855E+01   -0.1200944424E+01    0.1831234574E+01    0.5789165020E+01    0.2497971291E-03    0    0
  -24    2    6    6    0    0   -0.3438227844E+02   -0.5746452332E+01    0.1234155941E+02    0.3700874329E+02    0.1473084688E+01    0    0
  130    1   11   11    0    0   -0.1074463081E+02   -0.1838122010E+01    0.4108826637E+01    0.1166001606E+02    0.4977201819E+00    0    0
 -211    1   11   11    0    0   -0.8268162727E+01   -0.1228201151E+01    0.3122687817E+01    0.8924217224E+01    0.1395680606E+00    0    0
  130    1   11   11    0    0   -0.1536948490E+02   -0.2680129051E+01    0.5110044003E+01    0.1642450714E+02    0.4977200329E+00    0    0
  -16    1    9    9    0    0    0.8029437065E+00   -0.2896952868E+01   -0.1487242317E+02    0.1517320061E+02    0.4844515352E-03    0    0
   24    2    9    9    0    0    0.2378006458E+01   -0.6837568760E+01   -0.3254325485E+02    0.3336836624E+02    0.1406171918E+01    0    0
  211    1   16   16    0    0    0.6242795587E+00   -0.1562960029E+01   -0.7080478191E+01    0.7279094696E+01    0.1395684928E+00    0    0
  211    1   16   16    0    0    0.8684045672E+00   -0.1907631755E+01   -0.1048620892E+02    0.1069454193E+02    0.1395680606E+00    0    0
 -211    1   16   16    0    0    0.6055160612E-01   -0.3194871843E+00   -0.1194370508E+01    0.1245688081E+01    0.1395680457E+00    0    0
  111    1   16   16    0    0    0.5560308322E-01   -0.2349510491E+00   -0.9791344404E+00    0.1017454267E+01    0.1349640042E+00    0    0
  111    1   16   16    0    0    0.7691675425E+00   -0.2812538624E+01   -0.1280306149E+02    0.1313158703E+02    0.1349639893E+00    0    0
</event>
<event>
   17 9999    1    0.9119999695E+02    0.7565275169E-02    0.1185000000E+00
   11   -1    0    0    0    0    0.0000000000E+00    0.0000000000E+00    0.8000000000E+02    0.8000000000E+02    0.5109988851E-03    0    0
  -11   -1    0    0    0    0    0.0000000000E+00    0.0000000000E+00   -0.8000000000E+02    0.8000000000E+02    0.5109988851E-03    0    0
  -24    2    1    2    0    0    0.2993025780E+01   -0.1644116211E+02    0.1542454815E+02    0.7641656494E+02    0.7295413208E+02    0    0
   24    2    1    2    0    0   -0.2993025780E+01    0.1644116211E+02   -0.1542454815E+02    0.8358343506E+02    0.8043011475E+02    0    0
   15    2    3    3    0    0    0.2509081841E+02   -0.1851223755E+02   -0.1818493843E+02    0.3614002991E+02    0.1777029991E+01    0    0
  -16    1    3    3    0    0   -0.2209779167E+02    0.2071075201E+01    0.3360948563E+02    0.4027653503E+02    0.0000000000E+00    0    0
   16    1    4    4    0    0    0.2515775919E+01   -0.2609770012E+02    0.1569738674E+02    0.3055858421E+02    0.0000000000E+00    0    0
  -15    2    4    4    0    0   -0.5508801460E+01    0.4253886414E+02   -0.3112193489E+02    0.5302484894E+02    0.1777029991E+01    0    0
   16    1    5    5    0    0    0.1106200814E+01   -0.1123735189E+01   -0.7457583547E+00    0.1744309783E+01    0.9650505672E-04    0    0
  -24    2    5    5    0    0    0.2398560333E+02   -0.1738923073E+02   -0.1743989563E+02    0.3439714432E+02    0.1148478389E+01    0    0
 -321    1   10   10    0    0    0.1333195972E+02   -0.9667316437E+01   -0.1002030563E+02    0.1928337097E+02    0.4936669469E+00    0    0
  130    1   10   10    0    0    0.1065364170E+02   -0.7721911907E+01   -0.7419589043E+01    0.1511376953E+02    0.4977200329E+00    0    0
  -16    1    8    8    0    0   -0.3258025646E+00    0.1227351069E+01   -0.8622192144E+00    0.1534913659E+01    0.2483950811E-03    0    0
   24    2    8    8    0    0   -0.5183216095E+01    0.4131318665E+02   -0.3026094246E+02    0.5149201965E+02    0.1434775472E+01    0    0
  211    1   14   14    0    0   -0.2472937346E+01    0.1753794098E+02   -0.1315096092E+02    0.2206041908E+02    0.1395679712E+00    0    0
  130    1   14   14    0    0   -0.9003843069E+00    0.1003456116E+02   -0.7206742287E+01    0.1239709473E+02    0.4977200031E+00    0    0
  111    1   14   14    0    0   -0.1809894443E+01    0.1374068546E+02   -0.9903239250E+01    0.1703450966E+02    0.1349640489E+00    0    0
</event>
<event>
   17 9999    1    0.9119999695E+02    0.7565275169E-02    0.1185000000E+00
   11   -1    0    0    0    0    0.0000000000E+00    0.0000000000E+00    0.8000000000E+02    0.8000000000E+02    0.5109988851E-03    0    0
  -11   -1    0    0    0    0    0.0000000000E+00    0.0000000000E+00   -0.8000000000E+02    0.8000000000E+02    0.5109988851E-03    0    0
  -24    2    1    2    0    0   -0.2321428680E+02    0.3310239029E+02   -0.1199906731E+02    0.9790080261E+02    0.8835110474E+02    0    0
   24    2    1    2    0    0    0.2321428680E+02   -0.3310239029E+02    0.1199906731E+02    0.6209919739E+02    0.4558137131E+02    0    0
   15    2    3    3    0    0    0.2261208153E+02    0.2400628471E+02    0.2237947655E+02    0.3989494705E+02    0.1777029991E+01    0    0
  -16    1    3    3    0    0   -0.4582637024E+02    0.9096103668E+01   -0.3437854385E+02    0.5800585556E+02    0.0000000000E+00    0    0
   16    1    4    4    0    0    0.1104389572E+02    0.1006425667E+02   -0.2016322136E+01    0.1507721615E+02    0.0000000000E+00    0    0
  -15    2    4    4    0    0    0.1217039108E+02   -0.4316664505E+02    0.1401538849E+02    0.4702198029E+02    0.1777029991E+01    0    0
   16    1    5    5    0    0    0.1278648472E+02    0.1316869736E+02    0.1263499832E+02    0.2228344536E+02    0.4131160385E-03    0    0
  -24    2    5    5    0    0    0.9826487541E+01    0.1083853436E+02    0.9745359421E+01    0.1761307335E+02    0.1102092743E+01    0    0
  111    1   10   10    0    0    0.1606192470E+01    0.1700526714E+01    0.1396982789E+01    0.2727896929E+01    0.1349641681E+00    0    0
  111    1   10   10    0    0    0.3801920176E+01    0.4033979893E+01    0.4057870865E+01    0.6871107578E+01    0.1349639297E+00    0    0
 -321    1   10   10    0    0    0.4418374538E+01    0.5104027271E+01    0.4290504932E+01    0.8014066696E+01    0.4936669767E+00    0    0
  -16    1    8    8    0    0    0.1482450843E+01   -0.4727171421E+01    0.2033810854E+01    0.5355389595E+01    0.1220703125E-03    0    0
  213    2    8    8    0    0    0.1068841934E+02   -0.3844117355E+02    0.1198212910E+02    0.4166844177E+02    0.8494266272E+00    0    0
  211    1   15   15    0    0    0.4589417934E+01   -0.1576565552E+02    0.4574915886E+01    0.1704605484E+02    0.1395677477E+00    0    0
  111    1   15   15    0    0    0.6099001408E+01   -0.2267551613E+02    0.7407213688E+01    0.2462238693E+02    0.1349642426E+00    0    0
</event>
<event>
   16 9999    1    0.9119999695E+02    0.7565275169E-02    0.1185000000E+00
   11   -1    0    0    0    0    0.0000000000E+00    0.0000000000E+00    0.8000000000E+02    0.8000000000E+02    0.5109988851E-03    0    0
  -11   -1    0    0    0    0    0.0000000000E+00    0.0000000000E+00   -0.8000000000E+02    0.8000000000E+02    0.5109988851E-03    0    0
  -24    2    1    2    0    0    0.1516123581E+02    0.2908996820E+01   -0.6511937618E+01    0.7777490997E+02    0.7594870758E+02    0    0
   24    2    1    2    0    0   -0.1516123581E+02   -0.2908996820E+01    0.6511937618E+01    0.8222509003E+02    0.8049990845E+02    0    0
   15    2    3    3    0    0    0.2145234489E+02   -0.3201527786E+02    0.8062035561E+01    0.3941237640E+02    0.1777029991E+01    0    0
  -16    1    3    3    0    0   -0.6291110039E+01    0.3492427444E+02   -0.1457397270E+02    0.3836252975E+02    0.0000000000E+00    0    0
   16    1    4    4    0    0    0.2602725220E+02   -0.2043623924E+02   -0.9859799385E+01    0.3452931213E+02    0.0000000000E+00    0    0
  -15    2    4    4    0    0   -0.4118848801E+02    0.1752724266E+02    0.1637173653E+02    0.4769577789E+02    0.1777029991E+01    0    0
   16    1    5    5    0    0    0.3148043633E+01   -0.4398038387E+01    0.8719152212E+00    0.5478426456E+01    0.8631674427E-04    0    0
   11    1    5    5    0    0    0.1653642082E+02   -0.2546717072E+02    0.6866691113E+01    0.3113167953E+02    0.5320921773E-03    0    0
  -12    1    5    5    0    0    0.1768726826E+01   -0.2151331663E+01    0.3237471282E+00    0.2803824902E+01    0.1614838402E-03    0    0
  -16    1    8    8    0    0   -0.4802011490E+01    0.2138339758E+01    0.1845515966E+01    0.5571152687E+01    0.4294203827E-03    0    0
   24    2    8    8    0    0   -0.3638809967E+02    0.1538959217E+02    0.1452686501E+02    0.4212650299E+02    0.1636865139E+01    0    0
  221    1   13   13    0    0   -0.2230577087E+02    0.9206290245E+01    0.8328186035E+01    0.2553356743E+02    0.5487997532E+00    0    0
  211    1   13   13    0    0   -0.5166711330E+01    0.1994211197E+01    0.2224826813E+01    0.5970018387E+01    0.1395680457E+00    0    0
  111    1   13   13    0    0   -0.8915616035E+01    0.4189090252E+01    0.3973851919E+01    0.1062291908E+02    0.1349641681E+00    0    0
</event>
<event>
   16 9999    1    0.9119999695E+02    0.7565275169E-02    0.1185000000E+00
   11   -1    0    0    0    0    0.0000000000E+00    0.0000000000E+00    0.8000000000E+02    0.8000000000E+02    0.5109988851E-03    0    0
  -11   -1    0    0    0    0    0.0000000000E+00    0.0000000000E+00   -0.8000000000E+02    0.8000000000E+02    0.5109988851E-03    0    0
  -24    2    1    2    0    0    0.1604356915E+00   -0.7185572982E+00    0.4451627731E+01    0.7888103485E+02    0.7875187683E+02    0    0
   24    2    1    2    0    0   -0.1619652808E+00    0.7176365852E+00   -0.4361394405E+01    0.8102871704E+02    0.8090790558E+02    0    0
   22    1    1    2    0    0    0.1529596630E-02    0.9207165567E-03   -0.9023319185E-01    0.9025084972E-01    0.0000000000E+00    0    0
   15    2    3    3    0    0    0.4208409786E+01    0.7618980408E+01    0.4060147858E+02    0.4156197357E+02    0.1777029991E+01    0    0
  -16    1    3    3    0    0   -0.4047974110E+01   -0.8337537766E+01   -0.3614985275E+02    0.3731906128E+02    0.0000000000E+00    0    0
   16    1    4    4    0    0   -0.2781962585E+02   -0.2174174690E+02   -0.2161937141E+02    0.4140087509E+02    0.0000000000E+00    0    0
  -15    2    4    4    0    0    0.2765766144E+02    0.2245938492E+02    0.1725797653E+02    0.3962784195E+02    0.1777029991E+01    0    0
   16    1    6    6    0    0    0.4170055866E+01    0.6321318150E+01    0.3510914612E+02    0.3591658020E+02    0.4706940672E-04    0    0
 -211    1    6    6    0    0    0.3851960599E-01    0.1297962427E+01    0.5493932247E+01    0.5647031307E+01    0.1395679712E+00    0    0
  -16    1    9    9    0    0    0.2354440451E+01    0.1601301193E+01    0.1442787766E+01    0.3192051411E+01    0.3545822110E-03    0    0
   24    2    9    9    0    0    0.2530430984E+02    0.2085896873E+02    0.1581586838E+02    0.3643735123E+02    0.1460871339E+01    0    0
  211    1   13   13    0    0    0.8050098419E+01    0.6920775414E+01    0.5623333931E+01    0.1201426601E+02    0.1395683289E+00    0    0
  310    1   13   13    0    0    0.9239969254E+01    0.7615721703E+01    0.5365288734E+01    0.1313051033E+02    0.4977199435E+00    0    0
  111    1   13   13    0    0    0.8014241219E+01    0.6322470188E+01    0.4827246189E+01    0.1129257298E+02    0.1349640638E+00    0    0
</event>
<event>
   20 9999    1    0.9119999695E+02    0.7565275169E-02    0.1185000000E+00
   11   -1    0    0    0    0    0.0000000000E+00    0.0000000000E+00    0.8000000000E+02    0.8000000000E+02    0.5109988851E-03    0    0
  -11   -1    0    0    0    0    0.0000000000E+00    0.0000000000E+00   -0.8000000000E+02    0.8000000000E+02    0.5109988851E-03    0    0
  -24    2    1    2    0    0    0.1392319679E+02   -0.1233050942E+01    0.2452238846E+02    0.8374008179E+02    0.7883956909E+02    0    0
   24    2    1    2    0    0   -0.1402702618E+02    0.1344437361E+01   -0.3176310158E+02    0.6895560455E+02    0.5956018829E+02    0    0
   22    1    1    2    0    0    0.9749332070E-01   -0.1914862692E+00    0.7217465401E+01    0.7220663071E+01    0.0000000000E+00    0    0
   22    1    1    2    0    0    0.6335536949E-02    0.8009991795E-01    0.2324866690E-01    0.8364589512E-01    0.0000000000E+00    0    0
   15    2    3    3    0    0    0.1339494991E+02   -0.6064336300E+01    0.5290773773E+02    0.5494167328E+02    0.1777029991E+01    0    0
  -16    1    3    3    0    0    0.5282469988E+00    0.4831285477E+01   -0.2838534927E+02    0.2879841042E+02    0.0000000000E+00    0    0
   16    1    4    4    0    0    0.2126670265E+02   -0.1077257729E+02   -0.1287687016E+02    0.2709492302E+02    0.0000000000E+00    0    0
  -15    2    4    4    0    0   -0.3529372787E+02    0.1211701488E+02   -0.1888623238E+02    0.4186068344E+02    0.1777029991E+01    0    0
   16    1    7    7    0    0    0.5619195461E+01   -0.2140023470E+01    0.2083526039E+02    0.2168555069E+02    0.2190048253E-03    0    0
*****    2    7    7    0    0    0.7776281834E+01   -0.3924551725E+01    0.3207456207E+02    0.3325828552E+02    0.1209713817E+01    0    0
 -211    1   12   12    0    0    0.4567292690E+01   -0.2346331596E+01    0.1960175705E+02    0.2026360893E+02    0.1395681798E+00    0    0
 -211    1   12   12    0    0    0.1050199151E+01   -0.3595449626E+00    0.4863473415E+01    0.4990495205E+01    0.1395678520E+00    0    0
  211    1   12   12    0    0    0.2158790112E+01   -0.1218675137E+01    0.7609330177E+01    0.8004181862E+01    0.1395680606E+00    0    0
  -16    1   10   10    0    0   -0.1758812428E+01    0.7631652951E+00   -0.1118069410E+01    0.2219441891E+01    0.7324218750E-03    0    0
   24    2   10   10    0    0   -0.3353630447E+02    0.1135432529E+02   -0.1776890373E+02    0.3964288712E+02    0.1490046740E+01    0    0
  321    1   17   17    0    0   -0.1384908962E+02    0.4685781002E+01   -0.7013490200E+01    0.1622302628E+02    0.4936671853E+00    0    0
  211    1   17   17    0    0   -0.1170250320E+02    0.3901614189E+01   -0.6196056843E+01    0.1380513573E+02    0.1395679712E+00    0    0
 -321    1   17   17    0    0   -0.7984710693E+01    0.2766930580E+01   -0.4559357643E+01    0.9614726067E+01    0.4936670363E+00    0    0
</event>
<event>
   18 9999    1    0.9119999695E+02    0.7565275169E-02    0.1185000000E+00
   11   -1    0    0    0    0    0.0000000000E+00    0.0000000000E+00    0.8000000000E+02    0.8000000000E+02    0.5109988851E-03    0    0
  -11   -1    0    0    0    0    0.0000000000E+00    0.0000000000E+00   -0.8000000000E+02    0.8000000000E+02    0.5109988851E-03    0    0
  -24    2    1    2    0    0    0.7738822460E+01    0.1403629541E+01    0.2933961391E+01    0.7855284882E+02    0.7810302734E+02    0    0
   24    2    1    2    0    0   -0.7742249012E+01   -0.1407042742E+01   -0.2532710075E+01    0.8040515900E+02    0.7997908020E+02    0    0
   22    1    1    2    0    0    0.3255288349E-02    0.1553595182E-02   -0.7183834314E+00    0.7183924913E+00    0.0000000000E+00    0    0
   22    1    1    2    0    0    0.1716294355E-03   -0.3264701227E-03    0.3199951649E+00    0.3199953735E+00    0.0000000000E+00    0    0
   22    1    1    2    0    0   -0.5739116204E-06    0.2186084865E-02   -0.2863040427E-02    0.3602216952E-02    0.0000000000E+00    0    0
   15    2    3    3    0    0    0.9950619698E+01    0.1221923923E+02    0.3832694626E+02    0.4147815704E+02    0.1777029991E+01    0    0
  -16    1    3    3    0    0   -0.2211797237E+01   -0.1081560993E+02   -0.3539298630E+02    0.3707469559E+02    0.0000000000E+00    0    0
   16    1    4    4    0    0    0.1474372673E+02    0.2821224785E+02    0.1931883430E+02    0.3723608017E+02    0.0000000000E+00    0    0
  -15    2    4    4    0    0   -0.2248597527E+02   -0.2961929131E+02   -0.2185154343E+02    0.4316907883E+02    0.1777029991E+01    0    0
   16    1    8    8    0    0    0.2612209916E+00    0.6711568832E+00    0.1701304913E+01    0.1847464800E+01    0.4365454079E-03    0    0
  -24    2    8    8    0    0    0.9689789772E+01    0.1154856300E+02    0.3662715149E+02    0.3963232040E+02    0.1382564545E+01    0    0
 -321    1   13   13    0    0    0.2399419546E+01    0.2754226446E+01    0.8408437729E+01    0.9180876732E+01    0.4936670065E+00    0    0
 -211    1   13   13    0    0    0.5903777122E+01    0.6822597980E+01    0.2180523300E+02    0.2359851837E+02    0.1395686567E+00    0    0
  211    1   13   13    0    0    0.1386592865E+01    0.1971738100E+01    0.6413478374E+01    0.6852924347E+01    0.1395679861E+00    0    0
  -16    1   11   11    0    0   -0.1634720612E+02   -0.2198248291E+02   -0.1677825356E+02    0.3212429810E+02    0.3452669771E-03    0    0
  321    1   11   11    0    0   -0.6139656544E+01   -0.7637975216E+01   -0.5074151993E+01    0.1104648209E+02    0.4936669767E+00    0    0
</event>
<event>
   16 9999    1    0.9119999695E+02    0.7565275169E-02    0.1185000000E+00
   11   -1    0    0    0    0    0.0000000000E+00    0.0000000000E+00    0.8000000000E+02    0.8000000000E+02    0.5109988851E-03    0    0
  -11   -1    0    0    0    0    0.0000000000E+00    0.0000000000E+00   -0.8000000000E+02    0.8000000000E+02    0.5109988851E-03    0    0
  -24    2    1    2    0    0    0.2820889282E+02   -0.1639237976E+02    0.3454344034E+01    0.8659378052E+02    0.8013800049E+02    0    0
   24    2    1    2    0    0   -0.2820889282E+02    0.1639237976E+02   -0.3454344034E+01    0.7340621948E+02    0.6566649628E+02    0    0
   15    2    3    3    0    0    0.4293885827E-01    0.2139814949E+02    0.2959382772E+01    0.2167482758E+02    0.1777029991E+01    0    0
  -16    1    3    3    0    0    0.7860287666E+01   -0.4301628494E+02   -0.2173412323E+01    0.4378252029E+02    0.0000000000E+00    0    0
   22    1    3    3    0    0    0.2030566597E+02    0.5225756645E+01    0.2668373585E+01    0.2113643265E+02    0.0000000000E+00    0    0
   16    1    4    4    0    0   -0.3015400124E+02    0.3976794720E+01    0.2683764458E+02    0.4056276321E+02    0.0000000000E+00    0    0
  -15    2    4    4    0    0    0.1945107341E+01    0.1241558456E+02   -0.3029198837E+02    0.3284345627E+02    0.1777029991E+01    0    0
   16    1    5    5    0    0   -0.8236823231E-01    0.7980821609E+01    0.1227677703E+01    0.8075112343E+01    0.5741848145E-03    0    0
  -24    2    5    5    0    0    0.1253248155E+00    0.1341804695E+02    0.1731805921E+01    0.1360044193E+02    0.1383235216E+01    0    0
  221    1   11   11    0    0   -0.9721619636E-01    0.6210575104E+01    0.1084231019E+01    0.6329090118E+01    0.5488000512E+00    0    0
 -211    1   11   11    0    0   -0.9174696356E-01    0.5327801704E+01    0.4114018679E+00    0.5346268654E+01    0.1395679265E+00    0    0
  111    1   11   11    0    0    0.3143095374E+00    0.1879600525E+01    0.2361648977E+00    0.1925009608E+01    0.1349638253E+00    0    0
  -16    1    9    9    0    0    0.1631823897E+01    0.1194008636E+02   -0.2942240143E+02    0.3179475212E+02    0.2441406250E-03    0    0
  211    1    9    9    0    0    0.3133600056E+00    0.4759873748E+00   -0.8707804084E+00    0.1049998283E+01    0.1395681798E+00    0    0
</event>
<event>
   16 9999    1    0.9119999695E+02    0.7565275169E-02    0.1185000000E+00
   11   -1    0    0    0    0    0.0000000000E+00    0.0000000000E+00    0.8000000000E+02    0.8000000000E+02    0.5109988851E-03    0    0
  -11   -1    0    0    0    0    0.0000000000E+00    0.0000000000E+00   -0.8000000000E+02    0.8000000000E+02    0.5109988851E-03    0    0
  -24    2    1    2    0    0    0.2009914637E+01    0.3812174559E+01   -0.1205960661E+00    0.7863653564E+02    0.7851826477E+02    0    0
   24    2    1    2    0    0   -0.2034671545E+01   -0.3765603065E+01    0.7942080498E-01    0.8129554749E+02    0.8118275452E+02    0    0
   22    1    1    2    0    0    0.2475691400E-01   -0.4657156765E-01    0.4179731756E-01    0.6729659438E-01    0.0000000000E+00    0    0
   22    1    1    2    0    0   -0.1635117464E-07   -0.5914684742E-08   -0.6220542127E-03    0.6220542127E-03    0.0000000000E+00    0    0
   15    2    3    3    0    0    0.5938880444E+01    0.3576938248E+02    0.1921988678E+02    0.4107652664E+02    0.1777029991E+01    0    0
  -16    1    3    3    0    0   -0.3928966045E+01   -0.3195720673E+02   -0.1934048271E+02    0.3756000900E+02    0.0000000000E+00    0    0
   16    1    4    4    0    0    0.2921809387E+02    0.1819644737E+02   -0.1817281151E+02    0.3892375565E+02    0.0000000000E+00    0    0
  -15    2    4    4    0    0   -0.3125276566E+02   -0.2196204948E+02    0.1825223160E+02    0.4237179184E+02    0.1777029991E+01    0    0
   16    1    7    7    0    0    0.3498517752E+01    0.1776911926E+02    0.9897074699E+01    0.2063815117E+02    0.2114319796E-03    0    0
 -323    2    7    7    0    0    0.2440596342E+01    0.1800167084E+02    0.9323569298E+01    0.2043998909E+02    0.9206424356E+00    0    0
 -211    1   12   12    0    0    0.4769172668E+00    0.5753581047E+01    0.2916907310E+01    0.6469851017E+01    0.1395681649E+00    0    0
  130    1   12   12    0    0    0.1963679314E+01    0.1224809074E+02    0.6406662464E+01    0.1397014046E+02    0.4977200627E+00    0    0
  -16    1   10   10    0    0   -0.2001481247E+02   -0.1309952354E+02    0.1177535725E+02    0.2666175652E+02    0.2441406250E-03    0    0
  211    1   10   10    0    0   -0.1123918533E+02   -0.8863391876E+01    0.6477594376E+01    0.1571170616E+02    0.1395677477E+00    0    0
</event>
<event>
   17 9999    1    0.9119999695E+02    0.7565275169E-02    0.1185000000E+00
   11   -1    0    0    0    0    0.0000000000E+00    0.0000000000E+00    0.8000000000E+02    0.8000000000E+02    0.5109988851E-03    0    0
  -11   -1    0    0    0    0    0.0000000000E+00    0.0000000000E+00   -0.8000000000E+02    0.8000000000E+02    0.5109988851E-03    0    0
  -24    2    1    2    0    0   -0.3768670559E+00   -0.2535472298E+02   -0.2048605919E+02    0.8503963470E+02    0.7854335022E+02    0    0
   24    2    1    2    0    0    0.3768670261E+00    0.2535472298E+02    0.2048243523E+02    0.7495674133E+02    0.6749798584E+02    0    0
   22    1    1    2    0    0    0.3047105679E-07    0.1241720753E-06    0.3623264609E-02    0.3623264609E-02    0.0000000000E+00    0    0
   15    2    3    3    0    0   -0.4959831715E+01   -0.5362695312E+02   -0.1278426266E+02    0.5538090897E+02    0.1777029991E+01    0    0
  -16    1    3    3    0    0    0.4582964897E+01    0.2827222824E+02   -0.7701796055E+01    0.2965872765E+02    0.0000000000E+00    0    0
   16    1    4    4    0    0   -0.1612331963E+02    0.1677257538E+02    0.4104107666E+02    0.4717680359E+02    0.0000000000E+00    0    0
  -15    2    4    4    0    0    0.1650018501E+02    0.8582147598E+01   -0.2055864143E+02    0.2777993774E+02    0.1777029991E+01    0    0
   16    1    6    6    0    0   -0.1079874039E+01   -0.1298705006E+02   -0.3185243130E+01    0.1341548920E+02    0.4422417260E-03    0    0
  -24    2    6    6    0    0   -0.3880152941E+01   -0.4064201355E+02   -0.9599522591E+01    0.4196759796E+02    0.1516495943E+01    0    0
 -211    1   11   11    0    0   -0.3201669082E-01   -0.2077743769E+01   -0.6832602620E+00    0.2191886902E+01    0.1395680457E+00    0    0
  111    1   11   11    0    0   -0.3155635118E+01   -0.3326375580E+02   -0.7475685596E+01    0.3423944473E+02    0.1349642873E+00    0    0
   22    1   11   11    0    0   -0.6925010681E+00   -0.5300513744E+01   -0.1440576673E+01    0.5536267757E+01    0.1294751128E-03    0    0
  -16    1    9    9    0    0    0.6949001312E+01    0.3895415783E+01   -0.9343557358E+01    0.1227863789E+02    0.1220703125E-03    0    0
  -13    1    9    9    0    0    0.6531830311E+01    0.2601648808E+01   -0.7354191303E+01    0.1017490482E+02    0.1056590304E+00    0    0
   14    1    9    9    0    0    0.3020003796E+01    0.2085420609E+01   -0.3861701488E+01    0.5327488899E+01    0.1294751128E-03    0    0
</event>
<event>
   15 9999    1    0.9119999695E+02    0.7565275169E-02    0.1185000000E+00
   11   -1    0    0    0    0    0.0000000000E+00    0.0000000000E+00    0.8000000000E+02    0.8000000000E+02    0.5109988851E-03    0    0
  -11   -1    0    0    0    0    0.0000000000E+00    0.0000000000E+00   -0.8000000000E+02    0.8000000000E+02    0.5109988851E-03    0    0
  -24    2    1    2    0    0   -0.1636774445E+02    0.4861173153E+01    0.4369305420E+02    0.9599881744E+02    0.8375653076E+02    0    0
   24    2    1    2    0    0    0.1636774445E+02   -0.4861173153E+01   -0.4369305420E+02    0.6400118256E+02    0.4353773499E+02    0    0
   15    2    3    3    0    0   -0.1677118301E+02    0.2179339981E+02    0.6392596054E+02    0.6961257935E+02    0.1777029991E+01    0    0
  -16    1    3    3    0    0    0.4034389555E+00   -0.1693222618E+02   -0.2023290825E+02    0.2638624001E+02    0.0000000000E+00    0    0
   16    1    4    4    0    0    0.1889695740E+02    0.7578717709E+01   -0.2088639498E+01    0.2046690941E+02    0.0000000000E+00    0    0
  -15    2    4    4    0    0   -0.2529213428E+01   -0.1243989086E+02   -0.4160441208E+02    0.4353427124E+02    0.1777029991E+01    0    0
   16    1    5    5    0    0   -0.4043980598E+01    0.5371459961E+01    0.1485726261E+02    0.1630780792E+02    0.5790303112E-03    0    0
  -24    2    5    5    0    0   -0.1272786236E+02    0.1642279625E+02    0.4907120895E+02    0.5330750656E+02    0.1414157987E+01    0    0
 -321    1   10   10    0    0   -0.6935269833E+01    0.8842807770E+01    0.2658159256E+02    0.2886378288E+02    0.4936670065E+00    0    0
 -211    1   10   10    0    0   -0.1680527091E+01    0.2602545261E+01    0.7178618431E+01    0.7819811821E+01    0.1395685673E+00    0    0
  321    1   10   10    0    0   -0.4112063408E+01    0.4977440834E+01    0.1531099129E+02    0.1662390327E+02    0.4936670363E+00    0    0
  -16    1    8    8    0    0   -0.1558967113E+01   -0.6552575588E+01   -0.2465657806E+02    0.2555999756E+02    0.3662109375E-03    0    0
  321    1    8    8    0    0   -0.9703460336E+00   -0.5887805462E+01   -0.1694947433E+02    0.1797599030E+02    0.4936670065E+00    0    0
</event>
<event>
   20 9999    1    0.9119999695E+02    0.7565275169E-02    0.1185000000E+00
   11   -1    0    0    0    0    0.0000000000E+00    0.0000000000E+00    0.8000000000E+02    0.8000000000E+02    0.5109988851E-03    0    0
  -11   -1    0    0    0    0    0.0000000000E+00    0.0000000000E+00   -0.8000000000E+02    0.8000000000E+02    0.5109988851E-03    0    0
  -24    2    1    2    0    0   -0.4345661640E+01   -0.8076054573E+01    0.1445243073E+02    0.7796349335E+02    0.7606133270E+02    0    0
   24    2    1    2    0    0    0.4345661640E+01    0.8076055527E+01   -0.1444783974E+02    0.8203191376E+02    0.8022709656E+02    0    0
   22    1    1    2    0    0    0.3075144406E-07   -0.1282530661E-05   -0.4591410514E-02    0.4591410514E-02    0.0000000000E+00    0    0
   15    2    3    3    0    0   -0.3677433777E+02   -0.1067142296E+02   -0.7038653374E+01    0.3897347641E+02    0.1777029991E+01    0    0
  -16    1    3    3    0    0    0.3242867661E+02    0.2595368385E+01    0.2149108505E+02    0.3899002075E+02    0.0000000000E+00    0    0
   16    1    4    4    0    0   -0.2041001129E+02    0.3601589203E+02    0.1442927122E+01    0.4142215729E+02    0.0000000000E+00    0    0
  -15    2    4    4    0    0    0.2475567436E+02   -0.2793983650E+02   -0.1589076710E+02    0.4060975647E+02    0.1777029991E+01    0    0
   16    1    6    6    0    0   -0.3250847101E+01   -0.8376021981E+00   -0.8053182364E+00    0.3452263355E+01    0.0000000000E+00    0    0
  -24    2    6    6    0    0   -0.3352493668E+02   -0.9834239960E+01   -0.6233612061E+01    0.3552274323E+02    0.1540679216E+01    0    0
 -211    1   11   11    0    0   -0.3146836758E+01   -0.9104242921E+00   -0.6888443828E+00    0.3350438833E+01    0.1395680010E+00    0    0
 -211    1   11   11    0    0   -0.5659171104E+01   -0.1732026458E+01   -0.8828760386E+00    0.5985405922E+01    0.1395679861E+00    0    0
  211    1   11   11    0    0   -0.3944695473E+01   -0.1094247818E+01   -0.8006879687E+00    0.4173557281E+01    0.1395679861E+00    0    0
  111    1   11   11    0    0   -0.7108588696E+01   -0.1985881329E+01   -0.1097185493E+01    0.7463095188E+01    0.1349639744E+00    0    0
  111    1   11   11    0    0   -0.4170724869E+01   -0.1525379300E+01   -0.8000852466E+00    0.4514430046E+01    0.1349639744E+00    0    0
  111    1   11   11    0    0   -0.9494920731E+01   -0.2586280823E+01   -0.1963932753E+01    0.1003581619E+02    0.1349640191E+00    0    0
  -16    1    9    9    0    0    0.1498424768E+01   -0.1181911588E+01   -0.7455282211E+00    0.2048902988E+01    0.4085823894E-03    0    0
  -13    1    9    9    0    0    0.1127596474E+02   -0.1267885113E+02   -0.6863348484E+01    0.1830348015E+02    0.1056589931E+00    0    0
   14    1    9    9    0    0    0.1198225689E+02   -0.1408017254E+02   -0.8282514572E+01    0.2025896835E+02    0.2990099892E-03    0    0
</event>
<event>
   20 9999    1    0.9119999695E+02    0.7565275169E-02    0.1185000000E+00
   11   -1    0    0    0    0    0.0000000000E+00    0.0000000000E+00    0.8000000000E+02    0.8000000000E+02    0.5109988851E-03    0    0
  -11   -1    0    0    0    0    0.0000000000E+00    0.0000000000E+00   -0.8000000000E+02    0.8000000000E+02    0.5109988851E-03    0    0
  -24    2    1    2    0    0    0.1306632614E+02   -0.1275941563E+02    0.2039321065E+00    0.8128231812E+02    0.7920380402E+02    0    0
   24    2    1    2    0    0   -0.1306650543E+02    0.1276052380E+02   -0.2340348512E+00    0.7868755341E+02    0.7653830719E+02    0    0
   22    1    1    2    0    0    0.1793536794E-03   -0.1107812743E-02    0.3010274656E-01    0.3012365848E-01    0.0000000000E+00    0    0
   15    2    3    3    0    0   -0.1979673004E+02   -0.3550956726E+02   -0.4902053833E+01    0.4098814011E+02    0.1777029991E+01    0    0
  -16    1    3    3    0    0    0.3286305618E+02    0.2275015068E+02    0.5105986118E+01    0.4029417801E+02    0.0000000000E+00    0    0
   16    1    4    4    0    0   -0.1199369049E+02    0.4747541428E+01    0.3770792770E+02    0.3985317612E+02    0.0000000000E+00    0    0
  -15    2    4    4    0    0   -0.1072814822E+01    0.8012982368E+01   -0.3794196320E+02    0.3883438110E+02    0.1777029991E+01    0    0
   16    1    6    6    0    0   -0.3035573959E+01   -0.5643247604E+01   -0.4734932184E+00    0.6425352097E+01    0.4315837286E-03    0    0
  -24    2    6    6    0    0   -0.1676193428E+02   -0.2986771584E+02   -0.4428753376E+01    0.3456440353E+02    0.1428692222E+01    0    0
 -321    1   11   11    0    0   -0.6022278309E+01   -0.1089536667E+02   -0.1266662240E+01    0.1252297783E+02    0.4936669469E+00    0    0
  111    1   11   11    0    0   -0.5094204903E+01   -0.8830066681E+01   -0.1506555796E+01    0.1030577183E+02    0.1349634081E+00    0    0
  130    1   11   11    0    0   -0.5645451546E+01   -0.1014228249E+02   -0.1655535579E+01    0.1173565292E+02    0.4977200925E+00    0    0
  -16    1    9    9    0    0   -0.1720186025E+00    0.6217572093E+00   -0.2349991083E+01    0.2436930656E+01    0.6168024847E-03    0    0
   24    2    9    9    0    0   -0.9008384347E+00    0.7391540051E+01   -0.3559346390E+02    0.3639897919E+02    0.1595170140E+01    0    0
  211    1   16   16    0    0   -0.4824763834E+00    0.3843846083E+01   -0.1685506821E+02    0.1729510689E+02    0.1395676434E+00    0    0
  211    1   16   16    0    0   -0.1378519088E+00    0.2238766998E+00   -0.2673866749E+01    0.2690384150E+01    0.1395679861E+00    0    0
 -211    1   16   16    0    0   -0.2590058148E+00    0.2974501371E+01   -0.1445984077E+02    0.1476554203E+02    0.1395679265E+00    0    0
  111    1   16   16    0    0   -0.2150446177E-01    0.3493171036E+00   -0.1604693890E+01    0.1647951007E+01    0.1349639595E+00    0    0
</event>
<event>
   17 9999    1    0.9119999695E+02    0.7565275169E-02    0.1185000000E+00
   11   -1    0    0    0    0    0.0000000000E+00    0.0000000000E+00    0.8000000000E+02    0.8000000000E+02    0.5109988851E-03    0    0
  -11   -1    0    0    0    0    0.0000000000E+00    0.0000000000E+00   -0.8000000000E+02    0.8000000000E+02    0.5109988851E-03    0    0
  -24    2    1    2    0    0    0.3223086596E+01   -0.9293975830E+00    0.2048828697E+02    0.7712079620E+02    0.7427378845E+02    0    0
   24    2    1    2    0    0   -0.3223088503E+01    0.9293977618E+00   -0.2048774338E+02    0.8287865448E+02    0.8023635101E+02    0    0
   22    1    1    2    0    0    0.1950802698E-05   -0.1740859261E-06   -0.5445878487E-03    0.5445913412E-03    0.0000000000E+00    0    0
   15    2    3    3    0    0   -0.1266632080E+02    0.3247186279E+02    0.1302137226E+00    0.3490032196E+02    0.1777029991E+01    0    0
  -16    1    3    3    0    0    0.1588940716E+02   -0.3340126038E+02    0.2035807419E+02    0.4222047806E+02    0.0000000000E+00    0    0
   16    1    4    4    0    0   -0.3344423294E+02    0.1277137756E+02    0.1117141914E+02    0.3750233841E+02    0.0000000000E+00    0    0
  -15    2    4    4    0    0    0.3022114372E+02   -0.1184197998E+02   -0.3165916252E+02    0.4537631989E+02    0.1777029991E+01    0    0
   16    1    6    6    0    0   -0.9899761200E+01    0.2390112877E+02    0.4649398327E+00    0.2587441635E+02    0.4567452997E-03    0    0
 -321    1    6    6    0    0   -0.2767059088E+01    0.8572013855E+01   -0.3347209692E+00    0.9027279854E+01    0.4936669469E+00    0    0
  -16    1    9    9    0    0    0.1237948608E+02   -0.5062635899E+01   -0.1316613579E+02    0.1876776695E+02    0.3649371502E-03    0    0
   24    2    9    9    0    0    0.1784284592E+02   -0.6779809952E+01   -0.1849427223E+02    0.2661033630E+02    0.1318704963E+01    0    0
  111    1   13   13    0    0    0.1109633923E+01   -0.3650500774E+00   -0.1401545048E+01    0.1829506159E+01    0.1349638104E+00    0    0
  111    1   13   13    0    0    0.1092288017E+02   -0.4059371471E+01   -0.1071272945E+02    0.1582935905E+02    0.1349643469E+00    0    0
  111    1   13   13    0    0    0.3243583202E+01   -0.1343526125E+01   -0.3435129881E+01    0.4913677692E+01    0.1349640042E+00    0    0
  211    1   13   13    0    0    0.2566747904E+01   -0.1011862040E+01   -0.2944866896E+01    0.4037794113E+01    0.1395680606E+00    0    0
</event>
<event>
   22 9999    1    0.9119999695E+02    0.7565275169E-02    0.1185000000E+00
   11   -1    0    0    0    0    0.0000000000E+00    0.0000000000E+00    0.8000000000E+02    0.8000000000E+02    0.5109988851E-03    0    0
  -11   -1    0    0    0    0    0.0000000000E+00    0.0000000000E+00   -0.8000000000E+02    0.8000000000E+02    0.5109988851E-03    0    0
  -24    2    1    2    0    0   -0.2080027342E+01   -0.1913145256E+02    0.3090127230E+01    0.7942112732E+02    0.7699238586E+02    0    0
   24    2    1    2    0    0    0.2080028057E+01    0.1913140106E+02   -0.3142863274E+01    0.8052613831E+02    0.7812966156E+02    0    0
   22    1    1    2    0    0   -0.5260747571E-06    0.5167816562E-04    0.5273609608E-01    0.5273611844E-01    0.0000000000E+00    0    0
   15    2    3    3    0    0    0.2714633942E+02   -0.2491088867E+02   -0.1978679085E+02    0.4185870361E+02    0.1777029991E+01    0    0
  -16    1    3    3    0    0   -0.2922636604E+02    0.5779435635E+01    0.2287691879E+02    0.3756242371E+02    0.0000000000E+00    0    0
   16    1    4    4    0    0    0.1748892403E+02    0.1745901108E+02    0.3296088791E+02    0.4119586945E+02    0.0000000000E+00    0    0
  -15    2    4    4    0    0   -0.1540889645E+02    0.1672390342E+01   -0.3610375214E+02    0.3933026505E+02    0.1777029991E+01    0    0
   16    1    6    6    0    0    0.1998359442E+01   -0.1525462151E+01   -0.1327893138E+01    0.2843198061E+01    0.5501634587E-04    0    0
  -24    2    6    6    0    0    0.2514904594E+02   -0.2338640594E+02   -0.1845967484E+02    0.3901715088E+02    0.1476443052E+01    0    0
 -211    1   11   11    0    0    0.3219568968E+01   -0.3075357676E+01   -0.2310651779E+01    0.5018171310E+01    0.1395679861E+00    0    0
 -211    1   11   11    0    0    0.3730269909E+01   -0.3690178871E+01   -0.2722339869E+01    0.5912947655E+01    0.1395679414E+00    0    0
 -211    1   11   11    0    0    0.5379557610E+01   -0.4787109375E+01   -0.4114083290E+01    0.8294650078E+01    0.1395679116E+00    0    0
  211    1   11   11    0    0    0.1468619943E+01   -0.1469952583E+01   -0.1126586199E+01    0.2367758751E+01    0.1395679563E+00    0    0
  211    1   11   11    0    0    0.3893802404E+01   -0.3608435392E+01   -0.2572648287E+01    0.5900889874E+01    0.1395678967E+00    0    0
  111    1   11   11    0    0    0.7457227230E+01   -0.6755371094E+01   -0.5613366127E+01    0.1152273273E+02    0.1349638999E+00    0    0
  -16    1    9    9    0    0   -0.2323332071E+01    0.5570383370E-01   -0.5180116653E+01    0.5677550793E+01    0.3229676804E-03    0    0
   24    2    9    9    0    0   -0.1308617210E+02    0.1616752386E+01   -0.3092505836E+02    0.3365426254E+02    0.1545470357E+01    0    0
  310    1   19   19    0    0   -0.4537277222E+01    0.4346359968E+00   -0.1056366920E+02    0.1151584244E+02    0.4977199733E+00    0    0
  211    1   19   19    0    0   -0.6388339043E+01    0.9194014668E+00   -0.1533966541E+02    0.1664274597E+02    0.1395677924E+00    0    0
  310    1   19   19    0    0   -0.2160555601E+01    0.2627150118E+00   -0.5021723270E+01    0.5495675564E+01    0.4977200031E+00    0    0
</event>
<event>
   19 9999    1    0.9119999695E+02    0.7565275169E-02    0.1185000000E+00
   11   -1    0    0    0    0    0.0000000000E+00    0.0000000000E+00    0.8000000000E+02    0.8000000000E+02    0.5109988851E-03    0    0
  -11   -1    0    0    0    0    0.0000000000E+00    0.0000000000E+00   -0.8000000000E+02    0.8000000000E+02    0.5109988851E-03    0    0
  -24    2    1    2    0    0    0.4735537720E+02   -0.1156283855E+02    0.1630250931E+02    0.6566384888E+02    0.4086243439E+02    0    0
   24    2    1    2    0    0   -0.4735537720E+02    0.1156283855E+02   -0.1630283356E+02    0.9433582306E+02    0.7910268402E+02    0    0
   22    1    1    2    0    0   -0.2614216328E-05    0.1517994548E-06    0.3245026455E-03    0.3245132102E-03    0.0000000000E+00    0    0
   15    2    3    3    0    0    0.1864609528E+02    0.1479903412E+02    0.1115387058E+02    0.2634871864E+02    0.1777029991E+01    0    0
  -16    1    3    3    0    0    0.2870928192E+02   -0.2636187172E+02    0.5148638725E+01    0.3931513214E+02    0.0000000000E+00    0    0
   16    1    4    4    0    0   -0.4620663071E+02    0.2868126106E+02    0.1687482071E+02    0.5694231415E+02    0.0000000000E+00    0    0
  -15    2    4    4    0    0   -0.1148743987E+01   -0.1711842155E+02   -0.3317765427E+02    0.3739350891E+02    0.1777029991E+01    0    0
   16    1    6    6    0    0    0.6883728504E+01    0.5525633812E+01    0.4224565029E+01    0.9785974503E+01    0.3693761828E-03    0    0
  -24    2    6    6    0    0    0.1176310062E+02    0.9273982048E+01    0.6929744720E+01    0.1656377983E+02    0.1400062680E+01    0    0
 -211    1   11   11    0    0    0.2159965754E+01    0.1908033252E+01    0.1235644102E+01    0.3138843536E+01    0.1395678967E+00    0    0
 -211    1   11   11    0    0    0.1082964301E+01    0.9556945562E+00    0.6027211547E+00    0.1571278334E+01    0.1395678818E+00    0    0
  211    1   11   11    0    0    0.4393478870E+01    0.3417232275E+01    0.2818148851E+01    0.6240318298E+01    0.1395680308E+00    0    0
  111    1   11   11    0    0    0.5588817596E+00    0.6006444693E+00    0.2964357436E+00    0.8827298880E+00    0.1349639744E+00    0    0
  111    1   11   11    0    0    0.3567811728E+01    0.2392378807E+01    0.1976795673E+01    0.4730612278E+01    0.1349639148E+00    0    0
  -16    1    9    9    0    0   -0.5987676382E+00   -0.3797934055E+01   -0.8037148476E+01    0.8909465790E+01    0.1220703125E-03    0    0
  -11    1    9    9    0    0   -0.8609365821E+00   -0.1209898090E+02   -0.2281083107E+02    0.2583525848E+02    0.5320921773E-03    0    0
   12    1    9    9    0    0    0.3109149337E+00   -0.1222181916E+01   -0.2330982208E+01    0.2650259256E+01    0.0000000000E+00    0    0
</event>
<event>
   16 9999    1    0.9119999695E+02    0.7565275169E-02    0.1185000000E+00
   11   -1    0    0    0    0    0.0000000000E+00    0.0000000000E+00    0.8000000000E+02    0.8000000000E+02    0.5109988851E-03    0    0
  -11   -1    0    0    0    0    0.0000000000E+00    0.0000000000E+00   -0.8000000000E+02    0.8000000000E+02    0.5109988851E-03    0    0
  -24    2    1    2    0    0   -0.9705448151E+01   -0.1126747966E+01   -0.2120455742E+01    0.7945749664E+02    0.7882596588E+02    0    0
   24    2    1    2    0    0    0.9705448151E+01    0.1126747966E+01    0.2120455742E+01    0.8054250336E+02    0.7991954041E+02    0    0
   15    2    3    3    0    0    0.2649551964E+02    0.2148538017E+02    0.9050720215E+01    0.3533705521E+02    0.1777029991E+01    0    0
  -16    1    3    3    0    0   -0.3620096588E+02   -0.2261212921E+02   -0.1117117596E+02    0.4412044144E+02    0.0000000000E+00    0    0
   16    1    4    4    0    0   -0.1951313591E+02    0.3221821594E+02   -0.1414955258E+01    0.3769320679E+02    0.0000000000E+00    0    0
  -15    2    4    4    0    0    0.2921858406E+02   -0.3109146690E+02    0.3535411119E+01    0.4284929276E+02    0.1777029991E+01    0    0
   16    1    5    5    0    0    0.1390521812E+02    0.1198339081E+02    0.5152533054E+01    0.1906581497E+02    0.1495049946E-03    0    0
 -323    2    5    5    0    0    0.1259134293E+02    0.9502834320E+01    0.3898543119E+01    0.1627262878E+02    0.8683490753E+00    0    0
 -211    1   10   10    0    0    0.3631815195E+01    0.3049321175E+01    0.1273129463E+01    0.4912105560E+01    0.1395680010E+00    0    0
  310    1   10   10    0    0    0.8959529877E+01    0.6453515053E+01    0.2625414133E+01    0.1136052608E+02    0.4977200329E+00    0    0
  -16    1    8    8    0    0    0.1223005676E+02   -0.1240173721E+02    0.9036459327E+00    0.1744115639E+02    0.2441406250E-03    0    0
  323    2    8    8    0    0    0.1698967743E+02   -0.1869095421E+02    0.2631904364E+01    0.2540982246E+02    0.8551666141E+00    0    0
  211    1   14   14    0    0    0.7029868603E+01   -0.8087519646E+01    0.1192176223E+01    0.1078275394E+02    0.1395677924E+00    0    0
  310    1   14   14    0    0    0.9959810257E+01   -0.1060343552E+02    0.1439728260E+01    0.1462707043E+02    0.4977199733E+00    0    0
</event>
<event>
   21 9999    1    0.9119999695E+02    0.7565275169E-02    0.1185000000E+00
   11   -1    0    0    0    0    0.0000000000E+00    0.0000000000E+00    0.8000000000E+02    0.8000000000E+02    0.5109988851E-03    0    0
  -11   -1    0    0    0    0    0.0000000000E+00    0.0000000000E+00   -0.8000000000E+02    0.8000000000E+02    0.5109988851E-03    0    0
  -24    2    1    2    0    0   -0.5276975632E+01    0.7700108528E+01   -0.5333811760E+01    0.7828031921E+02    0.7753851318E+02    0    0
   24    2    1    2    0    0    0.5264093876E+01   -0.7699985027E+01    0.5363656521E+01    0.8168714142E+02    0.8097543335E+02    0    0
   22    1    1    2    0    0    0.1287397090E-01   -0.1555746276E-03   -0.2984387428E-01    0.3250261769E-01    0.0000000000E+00    0    0
   15    2    3    3    0    0   -0.5130795002E+01    0.3773448944E+02   -0.2191436958E+02    0.4397288132E+02    0.1777029991E+01    0    0
  -16    1    3    3    0    0   -0.1461806148E+00   -0.3003438187E+02    0.1658055687E+02    0.3430743790E+02    0.0000000000E+00    0    0
   16    1    4    4    0    0   -0.1135953140E+02   -0.2147977066E+02    0.3644350433E+02    0.4380123520E+02    0.0000000000E+00    0    0
  -15    2    4    4    0    0    0.1662362480E+02    0.1377978516E+02   -0.3107984543E+02    0.3788591003E+02    0.1777029991E+01    0    0
   16    1    6    6    0    0   -0.8939337730E-01    0.2068078965E+00   -0.1115768924E+00    0.2514161468E+00    0.5651677202E-04    0    0
  -24    2    6    6    0    0   -0.5041603565E+01    0.3752916718E+02   -0.2180365562E+02    0.4372319794E+02    0.1569154382E+01    0    0
 -211    1   11   11    0    0   -0.1062228799E+01    0.9820693016E+01   -0.5523873806E+01    0.1131843662E+02    0.1395679712E+00    0    0
 -211    1   11   11    0    0   -0.9505424500E+00    0.7389188766E+01   -0.4503572941E+01    0.8706623077E+01    0.1395680010E+00    0    0
 -211    1   11   11    0    0   -0.4143687785E+00    0.2373115301E+01   -0.1156880856E+01    0.2676047564E+01    0.1395679861E+00    0    0
  211    1   11   11    0    0   -0.1144447565E+01    0.9324492455E+01   -0.5496305466E+01    0.1088507080E+02    0.1395679861E+00    0    0
  211    1   11   11    0    0   -0.1470015764E+01    0.8621678352E+01   -0.5123021126E+01    0.1013701725E+02    0.1395680308E+00    0    0
  -16    1    9    9    0    0    0.1168649435E+01    0.1074352026E+01   -0.2055197954E+01    0.2596885204E+01    0.5774196470E-03    0    0
   24    2    9    9    0    0    0.1545562935E+02    0.1270597458E+02   -0.2902586937E+02    0.3529051208E+02    0.1612725973E+01    0    0
  221    1   18   18    0    0    0.3238782883E+01    0.2469148159E+01   -0.6399277210E+01    0.7605151653E+01    0.5488000512E+00    0    0
  211    1   18   18    0    0    0.8487619400E+01    0.6773160458E+01   -0.1562680531E+02    0.1902976418E+02    0.1395678073E+00    0    0
  111    1   18   18    0    0    0.3729228020E+01    0.3463667393E+01   -0.6999789715E+01    0.8655599594E+01    0.1349640787E+00    0    0
</event>
<event>
   21 9999    1    0.9119999695E+02    0.7565275169E-02    0.1185000000E+00
   11   -1    0    0    0    0    0.0000000000E+00    0.0000000000E+00    0.8000000000E+02    0.8000000000E+02    0.5109988851E-03    0    0
  -11   -1    0    0    0    0    0.0000000000E+00    0.0000000000E+00   -0.8000000000E+02    0.8000000000E+02    0.5109988851E-03    0    0
  -24    2    1    2    0    0   -0.1549513626E+02   -0.1998154998E+01    0.1994899869E+01    0.8008886719E+02    0.7852487183E+02    0    0
   24    2    1    2    0    0    0.1551037502E+02    0.1984052181E+01   -0.1942871094E+01    0.7983652496E+02    0.7826612854E+02    0    0
   22    1    1    2    0    0   -0.5072863307E-02   -0.3800348204E-03   -0.5360822007E-01    0.5384904519E-01    0.0000000000E+00    0    0
   22    1    1    2    0    0   -0.1016625110E-01    0.1448400877E-01   -0.1429056167E-02    0.1775334775E-01    0.0000000000E+00    0    0
   22    1    1    2    0    0    0.1624691137E-07   -0.1149606078E-05    0.3008570289E-02    0.3008570522E-02    0.0000000000E+00    0    0
   15    2    3    3    0    0   -0.5898471355E+01   -0.2651865768E+02    0.3076948166E+02    0.4108466721E+02    0.1777029991E+01    0    0
  -16    1    3    3    0    0   -0.9596664429E+01    0.2452050400E+02   -0.2877458000E+02    0.3900419998E+02    0.0000000000E+00    0    0
   16    1    4    4    0    0    0.2933880806E+02   -0.1295867729E+02    0.2867625427E+02    0.4302348709E+02    0.0000000000E+00    0    0
  -15    2    4    4    0    0   -0.1382843304E+02    0.1494272995E+02   -0.3061912537E+02    0.3681303406E+02    0.1777029991E+01    0    0
   16    1    8    8    0    0   -0.1847043633E+01   -0.9572932243E+01    0.1053838825E+02    0.1435653973E+02    0.2729575208E-03    0    0
  -24    2    8    8    0    0   -0.4051660061E+01   -0.1694676971E+02    0.2023230362E+02    0.2672974586E+02    0.1234607458E+01    0    0
 -211    1   13   13    0    0   -0.1506537557E+01   -0.7050309658E+01    0.8773659706E+01    0.1135663223E+02    0.1395674199E+00    0    0
  111    1   13   13    0    0   -0.1439054966E+01   -0.6934354305E+01    0.7741941452E+01    0.1049342728E+02    0.1349640191E+00    0    0
   22    1   13   13    0    0   -0.1106067657E+01   -0.2962106705E+01    0.3716703415E+01    0.4879687309E+01    0.1495049946E-03    0    0
  -16    1   11   11    0    0   -0.3449279070E+00    0.4183976948E+00   -0.5033155680E+00    0.7398366928E+00    0.4206557933E-03    0    0
   24    2   11   11    0    0   -0.1348405075E+02    0.1452492142E+02   -0.3011701584E+02    0.3607464600E+02    0.1246016264E+01    0    0
  211    1   18   18    0    0   -0.6079611778E+00    0.7409173846E+00   -0.1228033781E+01    0.1564008117E+01    0.1395679116E+00    0    0
  111    1   18   18    0    0   -0.1184286833E+01    0.1329982758E+01   -0.3088551760E+01    0.3567738295E+01    0.1349640638E+00    0    0
   22    1   18   18    0    0   -0.1169180012E+02    0.1245401859E+02   -0.2580042648E+02    0.3094289589E+02    0.2089395712E-03    0    0
</event>
<event>
   19 9999    1    0.9119999695E+02    0.7565275169E-02    0.1185000000E+00
   11   -1    0    0    0    0    0.0000000000E+00    0.0000000000E+00    0.8000000000E+02    0.8000000000E+02    0.5109988851E-03    0    0
  -11   -1    0    0    0    0    0.0000000000E+00    0.0000000000E+00   -0.8000000000E+02    0.8000000000E+02    0.5109988851E-03    0    0
  -24    2    1    2    0    0    0.5640025139E+00   -0.4468955517E+01    0.2822333336E+02    0.7436274719E+02    0.6865109253E+02    0    0
   24    2    1    2    0    0   -0.5639939308E+00    0.4468923569E+01   -0.2879163933E+02    0.8506894684E+02    0.7992169952E+02    0    0
   22    1    1    2    0    0   -0.8550186067E-05    0.3185892638E-04    0.5683065653E+00    0.5683065653E+00    0.0000000000E+00    0    0
   15    2    3    3    0    0    0.7582268238E+01   -0.3547359467E+02    0.9785223961E+01    0.3761349487E+02    0.1777029991E+01    0    0
  -16    1    3    3    0    0   -0.7018265724E+01    0.3100463867E+02    0.1843810844E+02    0.3674925232E+02    0.0000000000E+00    0    0
   16    1    4    4    0    0   -0.1007999229E+02   -0.1313183403E+02    0.2367486382E+02    0.2888858795E+02    0.0000000000E+00    0    0
  -15    2    4    4    0    0    0.9515997887E+01    0.1760075760E+02   -0.5246650314E+02    0.5618035889E+02    0.1777029991E+01    0    0
   16    1    6    6    0    0    0.2887706518E+01   -0.1627543831E+02    0.3769954920E+01    0.1695409393E+02    0.2990099892E-03    0    0
 -211    1    6    6    0    0    0.4694860935E+01   -0.1919955254E+02    0.6015654564E+01    0.2066088486E+02    0.1395682842E+00    0    0
  -16    1    9    9    0    0    0.3745934665E+00    0.5922205448E+00   -0.2211992979E+01    0.2320335865E+01    0.6103515625E-04    0    0
   24    2    9    9    0    0    0.9141778946E+01    0.1700922966E+02   -0.5025657654E+02    0.5386223602E+02    0.1590866804E+01    0    0
  211    1   13   13    0    0    0.7834993601E+00    0.1474855304E+01   -0.4353506088E+01    0.4664929390E+01    0.1395679861E+00    0    0
  211    1   13   13    0    0    0.7322167754E+00    0.9020346999E+00   -0.3126949072E+01    0.3338726997E+01    0.1395679116E+00    0    0
 -211    1   13   13    0    0    0.4549811184E+00    0.9935386181E+00   -0.3156881094E+01    0.3343576431E+01    0.1395680010E+00    0    0
  111    1   13   13    0    0    0.1004579186E+01    0.1828266501E+01   -0.5231746674E+01    0.5633926392E+01    0.1349639893E+00    0    0
  111    1   13   13    0    0    0.4676444530E+01    0.9214508057E+01   -0.2652469063E+02    0.2846671295E+02    0.1349639744E+00    0    0
  111    1   13   13    0    0    0.1490058541E+01    0.2596025944E+01   -0.7862802505E+01    0.8414362907E+01    0.1349640042E+00    0    0
</event>
<event>
   14 9999    1    0.9119999695E+02    0.7565275169E-02    0.1185000000E+00
   11   -1    0    0    0    0    0.0000000000E+00    0.0000000000E+00    0.8000000000E+02    0.8000000000E+02    0.5109988851E-03    0    0
  -11   -1    0    0    0    0    0.0000000000E+00    0.0000000000E+00   -0.8000000000E+02    0.8000000000E+02    0.5109988851E-03    0    0
  -24    2    1    2    0    0   -0.2280819321E+02   -0.2698401213E+00    0.9009858131E+01    0.8447914886E+02    0.8084096527E+02    0    0
   24    2    1    2    0    0    0.2280807686E+02    0.2701143622E+00   -0.9010874748E+01    0.7551702881E+02    0.7142369843E+02    0    0
   22    1    1    2    0    0    0.1159240128E-03   -0.2742853831E-03    0.2409061650E-02    0.2427395433E-02    0.0000000000E+00    0    0
   22    1    1    2    0    0    0.2672560662E-07    0.2343464089E-07   -0.1392988139E-02    0.1392988139E-02    0.0000000000E+00    0    0
   15    2    3    3    0    0   -0.2814954185E+02    0.3136243057E+02    0.2458086777E+02    0.4881982803E+02    0.1777029991E+01    0    0
  -16    1    3    3    0    0    0.5341349125E+01   -0.3163227081E+02   -0.1557100964E+02    0.3565931702E+02    0.0000000000E+00    0    0
   16    1    4    4    0    0    0.2495263481E+02    0.3215653229E+02    0.4141242504E+01    0.4091242599E+02    0.0000000000E+00    0    0
  -15    2    4    4    0    0   -0.2144556284E+01   -0.3188641930E+02   -0.1315211678E+02    0.3460460663E+02    0.1777029991E+01    0    0
   16    1    7    7    0    0   -0.1218716812E+02    0.1411213207E+02    0.9948038101E+01    0.2113392448E+02    0.2441406250E-03    0    0
 -211    1    7    7    0    0   -0.1596348381E+02    0.1725153542E+02    0.1463379955E+02    0.2768782806E+02    0.1395681798E+00    0    0
  -16    1   10   10    0    0   -0.1548642397E+01   -0.2957170296E+02   -0.1208393383E+02    0.3198289299E+02    0.2155219554E-03    0    0
  211    1   10   10    0    0   -0.5959982872E+00   -0.2315972090E+01   -0.1068701267E+01    0.2623078823E+01    0.1395681202E+00    0    0
</event>
<event>
   19 9999    1    0.9119999695E+02    0.7565275169E-02    0.1185000000E+00
   11   -1    0    0    0    0    0.0000000000E+00    0.0000000000E+00    0.8000000000E+02    0.8000000000E+02    0.5109988851E-03    0    0
  -11   -1    0    0    0    0    0.0000000000E+00    0.0000000000E+00   -0.8000000000E+02    0.8000000000E+02    0.5109988851E-03    0    0
  -24    2    1    2    0    0    0.2167934179E+01   -0.1035804844E+02   -0.6125678062E+01    0.7945491028E+02    0.7850839996E+02    0    0
   24    2    1    2    0    0   -0.2167934179E+01    0.1035804844E+02    0.6125678062E+01    0.8054508972E+02    0.7961154938E+02    0    0
   15    2    3    3    0    0   -0.5517716885E+01   -0.2422518921E+02    0.3059795380E+02    0.3945500565E+02    0.1777029991E+01    0    0
  -16    1    3    3    0    0    0.7685651302E+01    0.1386713982E+02   -0.3672363281E+02    0.3999990082E+02    0.0000000000E+00    0    0
   16    1    4    4    0    0    0.5678715706E+01   -0.3290971756E+02    0.1331458855E+02    0.3595240784E+02    0.0000000000E+00    0    0
  -15    2    4    4    0    0   -0.7846650124E+01    0.4326776505E+02   -0.7188910484E+01    0.4459268570E+02    0.1777029991E+01    0    0
   16    1    5    5    0    0   -0.1458337784E+01   -0.7691016674E+01    0.1028022385E+02    0.1292135811E+02    0.1220703125E-03    0    0
  -24    2    5    5    0    0   -0.4059596539E+01   -0.1653512573E+02    0.2031893539E+02    0.2653520203E+02    0.1169257283E+01    0    0
  111    1   10   10    0    0   -0.9009755254E+00   -0.3963882923E+01    0.4799478054E+01    0.6291051865E+01    0.1349636018E+00    0    0
  111    1   10   10    0    0   -0.8000233173E+00   -0.3348901510E+01    0.3823004007E+01    0.5146722317E+01    0.1349639744E+00    0    0
  111    1   10   10    0    0   -0.9366598129E+00   -0.4643822670E+01    0.6165989399E+01    0.7776892662E+01    0.1349639893E+00    0    0
 -211    1   10   10    0    0   -0.1421938181E+01   -0.4578519821E+01    0.5530465126E+01    0.7320538044E+01    0.1395679563E+00    0    0
  -16    1    8    8    0    0   -0.4713060558E+00    0.2034445524E+01   -0.5368183255E+00    0.2156217098E+01    0.2589502255E-03    0    0
   24    2    8    8    0    0   -0.7375652790E+01    0.4123502350E+02   -0.6652375221E+01    0.4243822479E+02    0.1421782613E+01    0    0
  111    1   16   16    0    0   -0.3531258583E+01    0.1930636024E+02   -0.3158720732E+01    0.1987966537E+02    0.1349641979E+00    0    0
  111    1   16   16    0    0   -0.1649490356E+01    0.8459883690E+01   -0.1693785906E+01    0.8785077095E+01    0.1349632293E+00    0    0
  321    1   16   16    0    0   -0.2194904566E+01    0.1346878242E+02   -0.1799869299E+01    0.1377348709E+02    0.4936670661E+00    0    0
</event>
<event>
   23 9999    1    0.9119999695E+02    0.7565275169E-02    0.1185000000E+00
   11   -1    0    0    0    0    0.0000000000E+00    0.0000000000E+00    0.8000000000E+02    0.8000000000E+02    0.5109988851E-03    0    0
  -11   -1    0    0    0    0    0.0000000000E+00    0.0000000000E+00   -0.8000000000E+02    0.8000000000E+02    0.5109988851E-03    0    0
  -24    2    1    2    0    0   -0.1113700294E+02   -0.6008675098E+01    0.7135232925E+01    0.8588455963E+02    0.8464696503E+02    0    0
   24    2    1    2    0    0    0.1114817524E+02    0.5955306530E+01   -0.7921734333E+01    0.7332704926E+02    0.7179383850E+02    0    0
   22    1    1    2    0    0   -0.1117280405E-01    0.5336834863E-01    0.7862606049E+00    0.7881489396E+00    0.0000000000E+00    0    0
   22    1    1    2    0    0    0.2333774063E-07    0.2490207685E-07    0.2403992403E-03    0.2403992548E-03    0.0000000000E+00    0    0
   15    2    3    3    0    0    0.6992055416E+01    0.3652637482E+02   -0.6240499496E+01    0.3775137711E+02    0.1777029991E+01    0    0
  -16    1    3    3    0    0   -0.1812905884E+02   -0.4253504944E+02    0.1337573242E+02    0.4813318253E+02    0.0000000000E+00    0    0
   16    1    4    4    0    0    0.3903529167E+01    0.3656372452E+02   -0.1704279900E+02    0.4052900696E+02    0.0000000000E+00    0    0
  -15    2    4    4    0    0    0.7244646072E+01   -0.3060841560E+02    0.9121064186E+01    0.3279804611E+02    0.1777029991E+01    0    0
   16    1    7    7    0    0    0.1221819043E+01    0.6982703686E+01   -0.1271501422E+01    0.7201923847E+01    0.1381742186E-03    0    0
  -24    2    7    7    0    0    0.5770512104E+01    0.2954510880E+02   -0.4969244003E+01    0.3055093956E+02    0.1566624045E+01    0    0
 -321    1   12   12    0    0    0.2134705067E+01    0.8455787659E+01   -0.1609169722E+01    0.8882028580E+01    0.4936669171E+00    0    0
 -211    1   12   12    0    0    0.3136132956E+01    0.1748106956E+02   -0.2719579458E+01    0.1796771431E+02    0.1395677477E+00    0    0
  211    1   12   12    0    0    0.4996738732E+00    0.3608251095E+01   -0.6404947042E+00    0.3701197386E+01    0.1395679712E+00    0    0
  -16    1   10   10    0    0    0.1249778509E+01   -0.5069716454E+01    0.1446506381E+01    0.5418149948E+01    0.5285799489E-04    0    0
   24    2   10   10    0    0    0.5995152473E+01   -0.2553990364E+02    0.7674916744E+01    0.2738118362E+02    0.1611318231E+01    0    0
  211    1   17   17    0    0    0.1634709716E+01   -0.5422806263E+01    0.1534863710E+01    0.5869786263E+01    0.1395679861E+00    0    0
  211    1   17   17    0    0    0.1567395777E+00   -0.7922870517E+00    0.2086684704E+00    0.8457587361E+00    0.1395679861E+00    0    0
 -211    1   17   17    0    0    0.9631931782E+00   -0.4031600475E+01    0.1275027156E+01    0.4338976383E+01    0.1395679861E+00    0    0
  111    1   17   17    0    0    0.2772888243E+00   -0.1230790377E+01    0.4527166188E+00    0.1347182870E+01    0.1349640191E+00    0    0
  111    1   17   17    0    0    0.9914957285E+00   -0.5432986259E+01    0.1665269971E+01    0.5769899845E+01    0.1349640042E+00    0    0
  111    1   17   17    0    0    0.1971725702E+01   -0.8629434586E+01    0.2538371086E+01    0.9209581375E+01    0.1349640191E+00    0    0
</event>
<event>
   20 9999    1    0.9119999695E+02    0.7565275169E-02    0.1185000000E+00
   11   -1    0    0    0    0    0.0000000000E+00    0.0000000000E+00    0.8000000000E+02    0.8000000000E+02    0.5109988851E-03    0    0
  -11   -1    0    0    0    0    0.0000000000E+00    0.0000000000E+00   -0.8000000000E+02    0.8000000000E+02    0.5109988851E-03    0    0
  -24    2    1    2    0    0   -0.1248309231E+02    0.1807119560E+02    0.2266243398E+00    0.8171200562E+02    0.7870454407E+02    0    0
   24    2    1    2    0    0    0.1248309231E+02   -0.1807119560E+02   -0.2266243398E+00    0.7828799438E+02    0.7514361572E+02    0    0
   15    2    3    3    0    0    0.1413986206E+02   -0.1328663063E+02    0.2650774574E+02    0.3289815521E+02    0.1777029991E+01    0    0
  -16    1    3    3    0    0   -0.2662295341E+02    0.3135782623E+02   -0.2628112030E+02    0.4881385422E+02    0.0000000000E+00    0    0
   16    1    4    4    0    0    0.3507506180E+02   -0.6685183048E+01   -0.2440359116E+02    0.4324912643E+02    0.0000000000E+00    0    0
  -15    2    4    4    0    0   -0.2259197044E+02   -0.1138601208E+02    0.2417696762E+02    0.3503886414E+02    0.1777029991E+01    0    0
   16    1    5    5    0    0    0.2913793802E+01   -0.3344311714E+01    0.6434965611E+01    0.7815587044E+01    0.2200653835E-03    0    0
  -24    2    5    5    0    0    0.1122662449E+02   -0.9942842484E+01    0.2007382393E+02    0.2508386421E+02    0.1159586430E+01    0    0
 -321    1   10   10    0    0    0.3225303888E+01   -0.3066782475E+01    0.6153966904E+01    0.7610700130E+01    0.4936670363E+00    0    0
  310    1   10   10    0    0    0.8001321793E+01   -0.6876060486E+01    0.1391985798E+02    0.1747316551E+02    0.4977200329E+00    0    0
  -16    1    8    8    0    0   -0.1866846800E+01   -0.1144205451E+01    0.2023097992E+01    0.2981148958E+01    0.2472781125E-04    0    0
   24    2    8    8    0    0   -0.2072601128E+02   -0.1024225426E+02    0.2215481949E+02    0.3205909348E+02    0.1574177980E+01    0    0
  211    1   14   14    0    0   -0.2618888855E+01   -0.1331416488E+01    0.2770127296E+01    0.4040338039E+01    0.1395679861E+00    0    0
  211    1   14   14    0    0   -0.1428571582E+01   -0.7822917700E+00    0.1627076507E+01    0.2306437492E+01    0.1395679712E+00    0    0
  211    1   14   14    0    0   -0.4320050716E+01   -0.1982601047E+01    0.5016434669E+01    0.6912137508E+01    0.1395678520E+00    0    0
 -211    1   14   14    0    0   -0.2631658554E+01   -0.1335434318E+01    0.2813568354E+01    0.4079786301E+01    0.1395679861E+00    0    0
 -211    1   14   14    0    0   -0.2974055767E+01   -0.1668484449E+01    0.2881575108E+01    0.4466743946E+01    0.1395678371E+00    0    0
  111    1   14   14    0    0   -0.6752785683E+01   -0.3142025709E+01    0.7046036720E+01    0.1025364780E+02    0.1349638849E+00    0    0
</event>
<event>
   21 9999    1    0.9119999695E+02    0.7565275169E-02    0.1185000000E+00
   11   -1    0    0    0    0    0.0000000000E+00    0.0000000000E+00    0.8000000000E+02    0.8000000000E+02    0.5109988851E-03    0    0
  -11   -1    0    0    0    0    0.0000000000E+00    0.0000000000E+00   -0.8000000000E+02    0.8000000000E+02    0.5109988851E-03    0    0
  -24    2    1    2    0    0    0.9329170227E+01   -0.4765352234E-01    0.1123573875E+02    0.8134448242E+02    0.8002278900E+02    0    0
   24    2    1    2    0    0   -0.9329344749E+01    0.4790716618E-01   -0.1106496525E+02    0.7845972443E+02    0.7711326599E+02    0    0
   22    1    1    2    0    0    0.4784331395E-05   -0.8328128160E-06   -0.1832819879E+00    0.1832819879E+00    0.0000000000E+00    0    0
   22    1    1    2    0    0    0.1692046644E-03   -0.2528108598E-03    0.1250835974E-01    0.1251205895E-01    0.0000000000E+00    0    0
   15    2    3    3    0    0   -0.1110149026E+01    0.3946685410E+02    0.8180827141E+01    0.4036023712E+02    0.1777029991E+01    0    0
  -16    1    3    3    0    0    0.1043931961E+02   -0.3951450729E+02    0.3054911137E+01    0.4098424149E+02    0.0000000000E+00    0    0
   16    1    4    4    0    0   -0.1935733986E+02    0.2445204735E+02    0.2047012138E+02    0.3730462646E+02    0.0000000000E+00    0    0
  -15    2    4    4    0    0    0.1002799511E+02   -0.2440414047E+02   -0.3153508568E+02    0.4115510178E+02    0.1777029991E+01    0    0
   16    1    7    7    0    0   -0.1235149384E+01    0.3454868317E+02    0.6996532440E+01    0.3527164078E+02    0.1977765060E-03    0    0
   13    1    7    7    0    0    0.1519773751E+00    0.3072301865E+01    0.9858599901E+00    0.3231906414E+01    0.1056592762E+00    0    0
  -14    1    7    7    0    0   -0.2702072263E-01    0.1847424507E+01    0.1987574250E+00    0.1858281970E+01    0.6103515625E-04    0    0
  -16    1   10   10    0    0    0.1824098706E+01   -0.4856196880E+01   -0.6145743847E+01    0.8042397499E+01    0.3191604628E-04    0    0
   24    2   10   10    0    0    0.8204291344E+01   -0.1954890442E+02   -0.2539058495E+02    0.3311432266E+02    0.1551318765E+01    0    0
  211    1   15   15    0    0    0.1726819634E+01   -0.4688599586E+01   -0.6357005119E+01    0.8086771011E+01    0.1395680457E+00    0    0
  211    1   15   15    0    0    0.1645034432E+01   -0.3999435663E+01   -0.5119723797E+01    0.6703184128E+01    0.1395679861E+00    0    0
  211    1   15   15    0    0    0.6628348231E+00   -0.1714960337E+01   -0.2184967518E+01    0.2859021187E+01    0.1395680010E+00    0    0
 -211    1   15   15    0    0    0.1702633858E+01   -0.3775061131E+01   -0.4950701237E+01    0.6455924988E+01    0.1395680010E+00    0    0
 -211    1   15   15    0    0    0.4085704982E+00   -0.8243108392E+00   -0.1282876134E+01    0.1584824443E+01    0.1395679861E+00    0    0
  111    1   15   15    0    0    0.2058398008E+01   -0.4546537399E+01   -0.5495310783E+01    0.7424598217E+01    0.1349639297E+00    0    0
</event>
<event>
   18 9999    1    0.9119999695E+02    0.7565275169E-02    0.1185000000E+00
   11   -1    0    0    0    0    0.0000000000E+00    0.0000000000E+00    0.8000000000E+02    0.8000000000E+02    0.5109988851E-03    0    0
  -11   -1    0    0    0    0    0.0000000000E+00    0.0000000000E+00   -0.8000000000E+02    0.8000000000E+02    0.5109988851E-03    0    0
  -24    2    1    2    0    0    0.1283647656E+01   -0.1529994130E+01    0.6637557507E+01    0.7996485138E+02    0.7966386414E+02    0    0
   24    2    1    2    0    0   -0.1283643007E+01    0.1529993534E+01   -0.6630978107E+01    0.8002857208E+02    0.7972837830E+02    0    0
   22    1    1    2    0    0   -0.4636682206E-05    0.6773533414E-06   -0.6579238456E-02    0.6579239853E-02    0.0000000000E+00    0    0
   15    2    3    3    0    0   -0.2799147415E+02    0.2530395317E+02   -0.6088923931E+01    0.3826284790E+02    0.1777029991E+01    0    0
  -16    1    3    3    0    0    0.2927512169E+02   -0.2683394814E+02    0.1272648144E+02    0.4170199966E+02    0.0000000000E+00    0    0
   16    1    4    4    0    0   -0.3817583084E+02   -0.2408075094E+01   -0.1640302467E+02    0.4162033463E+02    0.0000000000E+00    0    0
  -15    2    4    4    0    0    0.3689218903E+02    0.3938068628E+01    0.9772046089E+01    0.3840823746E+02    0.1777029991E+01    0    0
   16    1    6    6    0    0   -0.6410356522E+01    0.6113832951E+01   -0.1020610094E+01    0.8917021751E+01    0.5854286719E-03    0    0
  -24    2    6    6    0    0   -0.2158221817E+02    0.1919111443E+02   -0.5068552971E+01    0.2934733009E+02    0.1218417287E+01    0    0
 -211    1   11   11    0    0   -0.1682683468E+01    0.1650878191E+01   -0.2384536117E+00    0.2373428345E+01    0.1395682096E+00    0    0
 -211    1   11   11    0    0   -0.2620229959E+01    0.2327243090E+01   -0.6832379699E+00    0.3573228121E+01    0.1395680606E+00    0    0
  211    1   11   11    0    0   -0.1064717102E+02    0.9590405464E+01   -0.2363812923E+01    0.1452395344E+02    0.1395679563E+00    0    0
  111    1   11   11    0    0   -0.6632133007E+01    0.5622588634E+01   -0.1783048153E+01    0.8876720428E+01    0.1349640638E+00    0    0
  -16    1    9    9    0    0    0.2552295876E+02    0.2977977753E+01    0.6723981380E+01    0.2656128311E+02    0.2092179784E-03    0    0
  -11    1    9    9    0    0    0.3529249191E+01    0.7023572326E+00    0.1128960609E+01    0.3771399975E+01    0.5179004511E-03    0    0
   12    1    9    9    0    0    0.7841434002E+01    0.2578887045E+00    0.1919488668E+01    0.8077068329E+01    0.6103515625E-04    0    0
</event>
<event>
   21 9999    1    0.9119999695E+02    0.7565275169E-02    0.1185000000E+00
   11   -1    0    0    0    0    0.0000000000E+00    0.0000000000E+00    0.8000000000E+02    0.8000000000E+02    0.5109988851E-03    0    0
  -11   -1    0    0    0    0    0.0000000000E+00    0.0000000000E+00   -0.8000000000E+02    0.8000000000E+02    0.5109988851E-03    0    0
  -24    2    1    2    0    0    0.2518792725E+02    0.2438261795E+02    0.3134087372E+02    0.6645317841E+02    0.4695561981E+02    0    0
   24    2    1    2    0    0   -0.2518803406E+02   -0.2438250732E+02   -0.3134057999E+02    0.9354649353E+02    0.8086885071E+02    0    0
   22    1    1    2    0    0    0.1075131004E-03   -0.1110763478E-03   -0.2935081429E-03    0.3317288647E-03    0.0000000000E+00    0    0
   15    2    3    3    0    0   -0.2646582127E+01   -0.5101232529E+01    0.2463082695E+02    0.2535473251E+02    0.1777029991E+01    0    0
  -16    1    3    3    0    0    0.2783450890E+02    0.2948385048E+02    0.6710047722E+01    0.4109844208E+02    0.0000000000E+00    0    0
   16    1    4    4    0    0   -0.5423368454E+02   -0.8498319626E+01   -0.2160148621E+02    0.5899269485E+02    0.0000000000E+00    0    0
  -15    2    4    4    0    0    0.2904564857E+02   -0.1588418770E+02   -0.9739095688E+01    0.3455379868E+02    0.1777029991E+01    0    0
   16    1    6    6    0    0   -0.5542148948E+00   -0.1212940693E+01    0.4823442459E+01    0.5004395485E+01    0.3558930475E-03    0    0
  -24    2    6    6    0    0   -0.2092471600E+01   -0.3888492584E+01    0.1980835342E+02    0.2035133362E+02    0.1518918395E+01    0    0
  221    1   11   11    0    0   -0.3578018546E+00   -0.1285269260E+01    0.5023918629E+01    0.5226937771E+01    0.5487999916E+00    0    0
 -211    1   11   11    0    0   -0.5583378673E+00   -0.1204613566E+01    0.7105809689E+01    0.7230134487E+01    0.1395679265E+00    0    0
  111    1   11   11    0    0   -0.1176331639E+01   -0.1398609519E+01    0.7678623676E+01    0.7894259930E+01    0.1349639297E+00    0    0
  -16    1    9    9    0    0    0.6892793655E+01   -0.3966564417E+01   -0.2427622080E+01    0.8314901352E+01    0.7475249731E-04    0    0
   24    2    9    9    0    0    0.2215399933E+02   -0.1191824913E+02   -0.7311856747E+01    0.2624025726E+02    0.1497838140E+01    0    0
  211    1   16   16    0    0    0.3878982544E+01   -0.2043366194E+01   -0.1156323910E+01    0.4536344051E+01    0.1395680159E+00    0    0
  211    1   16   16    0    0    0.1536238074E+01   -0.9064847231E+00   -0.4607515633E+00    0.1847569585E+01    0.1395680159E+00    0    0
  211    1   16   16    0    0    0.3164555311E+01   -0.1542352557E+01   -0.1307844758E+01    0.3758084536E+01    0.1395679265E+00    0    0
 -211    1   16   16    0    0    0.1115968990E+02   -0.5868144989E+01   -0.3451500416E+01    0.1307310772E+02    0.1395679861E+00    0    0
 -211    1   16   16    0    0    0.2414533377E+01   -0.1557900190E+01   -0.9354362488E+00    0.3025151968E+01    0.1395680010E+00    0    0
</event>
<event>
   19 9999    1    0.9119999695E+02    0.7565275169E-02    0.1185000000E+00
   11   -1    0    0    0    0    0.0000000000E+00    0.0000000000E+00    0.8000000000E+02    0.8000000000E+02    0.5109988851E-03    0    0
  -11   -1    0    0    0    0    0.0000000000E+00    0.0000000000E+00   -0.8000000000E+02    0.8000000000E+02    0.5109988851E-03    0    0
  -24    2    1    2    0    0    0.1211229801E+01   -0.6069294930E+01    0.1557111382E+01    0.7874326324E+02    0.7848422241E+02    0    0
   24    2    1    2    0    0   -0.1211226463E+01    0.6069319725E+01   -0.1558760524E+01    0.8125508881E+02    0.8100405121E+02    0    0
   22    1    1    2    0    0   -0.3350897487E-05   -0.2500434312E-04    0.1649215817E-02    0.1649408718E-02    0.0000000000E+00    0    0
   15    2    3    3    0    0    0.2875716019E+02   -0.3367722750E+01    0.2810588074E+02    0.4039076996E+02    0.1777029991E+01    0    0
  -16    1    3    3    0    0   -0.2754593086E+02   -0.2701572180E+01   -0.2654876900E+02    0.3835249710E+02    0.0000000000E+00    0    0
   16    1    4    4    0    0    0.2943317413E+02   -0.1970565796E+02   -0.1570975971E+02    0.3874817657E+02    0.0000000000E+00    0    0
  -15    2    4    4    0    0   -0.3064439964E+02    0.2577497864E+02    0.1415099907E+02    0.4250690842E+02    0.1777029991E+01    0    0
   16    1    6    6    0    0    0.3268879652E+01   -0.7515161037E+00    0.3447184801E+01    0.4809722900E+01    0.5106567405E-03    0    0
*****    2    6    6    0    0    0.2548941040E+02   -0.2616338968E+01    0.2465979958E+02    0.3558263397E+02    0.1209433436E+01    0    0
 -211    1   11   11    0    0    0.5432689667E+01   -0.7956610322E+00    0.5395285130E+01    0.7699076176E+01    0.1395680904E+00    0    0
 -211    1   11   11    0    0    0.7764795780E+01   -0.1075588465E+01    0.7252358437E+01    0.1068012714E+02    0.1395681202E+00    0    0
  211    1   11   11    0    0    0.1229192734E+02   -0.7450897098E+00    0.1201215935E+02    0.1720343208E+02    0.1395679563E+00    0    0
  -16    1    9    9    0    0   -0.3981060266E+01    0.3463793278E+01    0.1711856723E+01    0.5547716618E+01    0.5232674885E-03    0    0
   24    2    9    9    0    0   -0.2666454506E+02    0.2231219864E+02    0.1243969917E+02    0.3696086502E+02    0.1589734554E+01    0    0
  310    1   16   16    0    0   -0.1780146599E+02    0.1505775833E+02    0.8294597626E+01    0.2475230026E+02    0.4977200329E+00    0    0
  211    1   16   16    0    0   -0.3341867447E+01    0.2498543978E+01    0.1668221235E+01    0.4495913982E+01    0.1395686716E+00    0    0
  130    1   16   16    0    0   -0.5521211624E+01    0.4755896091E+01    0.2476881027E+01    0.7712651253E+01    0.4977199733E+00    0    0
</event>
<event>
   18 9999    1    0.9119999695E+02    0.7565275169E-02    0.1185000000E+00
   11   -1    0    0    0    0    0.0000000000E+00    0.0000000000E+00    0.8000000000E+02    0.8000000000E+02    0.5109988851E-03    0    0
  -11   -1    0    0    0    0    0.0000000000E+00    0.0000000000E+00   -0.8000000000E+02    0.8000000000E+02    0.5109988851E-03    0    0
  -24    2    1    2    0    0   -0.2107802010E+02    0.9223347664E+01    0.1640244102E+02    0.8384970856E+02    0.7894542694E+02    0    0
   24    2    1    2    0    0    0.2107802010E+02   -0.9223347664E+01   -0.1640244102E+02    0.7615029144E+02    0.7071402740E+02    0    0
   15    2    3    3    0    0   -0.4649101639E+02   -0.5512628078E+01   -0.5548768997E+01    0.4717785645E+02    0.1777029991E+01    0    0
  -16    1    3    3    0    0    0.2541299438E+02    0.1473597527E+02    0.2195121002E+02    0.3667185211E+02    0.0000000000E+00    0    0
   16    1    4    4    0    0   -0.2382920837E+02    0.7546794415E+00    0.6528305054E+01    0.2471880722E+02    0.0000000000E+00    0    0
  -15    2    4    4    0    0    0.4490723038E+02   -0.9978027344E+01   -0.2293074608E+02    0.5143148041E+02    0.1777029991E+01    0    0
   16    1    5    5    0    0   -0.2527793884E+01   -0.6576080918E+00   -0.4506037831E+00    0.2650515795E+01    0.1431401324E-03    0    0
 -213    2    5    5    0    0   -0.4396504974E+02   -0.4855236530E+01   -0.5098383427E+01    0.4452919769E+02    0.5974585414E+00    0    0
 -211    1   10   10    0    0   -0.7308626175E+01   -0.7537536621E+00   -0.1013705134E+01    0.7418304443E+01    0.1395680308E+00    0    0
  111    1   10   10    0    0   -0.3665642166E+02   -0.4101482868E+01   -0.4084678173E+01    0.3711089325E+02    0.1349641234E+00    0    0
  -16    1    8    8    0    0    0.4574963093E+01   -0.1195511699E+01   -0.1882148504E+01    0.5089402676E+01    0.2729575208E-03    0    0
   24    2    8    8    0    0    0.4033403397E+02   -0.8782907486E+01   -0.2104949951E+02    0.4634410095E+02    0.8489020467E+00    0    0
  111    1   14   14    0    0    0.9719273567E+01   -0.2016039848E+01   -0.5004475594E+01    0.1111717987E+02    0.1349639446E+00    0    0
  111    1   14   14    0    0    0.3960787773E+01   -0.8664469123E+00   -0.2171494246E+01    0.4601323128E+01    0.1349640638E+00    0    0
  111    1   14   14    0    0    0.5709032536E+01   -0.1181395173E+01   -0.2856087446E+01    0.6493396759E+01    0.1349640042E+00    0    0
  211    1   14   14    0    0    0.2094494247E+02   -0.4719026566E+01   -0.1101744366E+02    0.2413220596E+02    0.1395681500E+00    0    0
</event>
<event>
   18 9999    1    0.9119999695E+02    0.7565275169E-02    0.1185000000E+00
   11   -1    0    0    0    0    0.0000000000E+00    0.0000000000E+00    0.8000000000E+02    0.8000000000E+02    0.5109988851E-03    0    0
  -11   -1    0    0    0    0    0.0000000000E+00    0.0000000000E+00   -0.8000000000E+02    0.8000000000E+02    0.5109988851E-03    0    0
  -24    2    1    2    0    0    0.2159970284E+02    0.3809529781E+01    0.8140118599E+01    0.8389830780E+02    0.8057049561E+02    0    0
   24    2    1    2    0    0   -0.2159970284E+02   -0.3809529781E+01   -0.8140118599E+01    0.7610169220E+02    0.7241648102E+02    0    0
   15    2    3    3    0    0    0.4937316132E+02    0.8770017624E+01    0.1901839066E+02    0.5366077805E+02    0.1777029991E+01    0    0
  -16    1    3    3    0    0   -0.2777345657E+02   -0.4960487843E+01   -0.1087827301E+02    0.3023752785E+02    0.0000000000E+00    0    0
   16    1    4    4    0    0   -0.1908958054E+02   -0.1626527596E+02    0.2809615898E+02    0.3766119385E+02    0.0000000000E+00    0    0
  -15    2    4    4    0    0   -0.2510123253E+01    0.1245574665E+02   -0.3623627853E+02    0.3844049835E+02    0.1777029991E+01    0    0
   16    1    5    5    0    0    0.9325539589E+01    0.1369384885E+01    0.3511281252E+01    0.1005832958E+02    0.4283346061E-03    0    0
  -24    2    5    5    0    0    0.4004956436E+02    0.7400977612E+01    0.1550785828E+02    0.4360456085E+02    0.1456719637E+01    0    0
 -211    1   10   10    0    0    0.1808708572E+02    0.3595546961E+01    0.6798663616E+01    0.1965481949E+02    0.1395681053E+00    0    0
 -211    1   10   10    0    0    0.1042698193E+02    0.2023003101E+01    0.3913533211E+01    0.1132032394E+02    0.1395679712E+00    0    0
  211    1   10   10    0    0    0.3493918419E+01    0.4652068317E+00    0.1456313252E+01    0.3816308498E+01    0.1395680010E+00    0    0
  111    1   10   10    0    0    0.3642992496E+01    0.5212739706E+00    0.1587244630E+01    0.4010072231E+01    0.1349641383E+00    0    0
  111    1   10   10    0    0    0.4398583412E+01    0.7959467769E+00    0.1752102971E+01    0.4803035259E+01    0.1349641830E+00    0    0
  -16    1    8    8    0    0   -0.4673354924E+00    0.1893583655E+01   -0.4285855770E+01    0.4708781242E+01    0.1495049946E-03    0    0
  -11    1    8    8    0    0   -0.8685999513E+00    0.5266761303E+01   -0.1754270744E+02    0.1833684349E+02    0.6103515625E-03    0    0
   12    1    8    8    0    0   -0.1174286723E+01    0.5295892239E+01   -0.1440914059E+02    0.1539638710E+02    0.6103515625E-04    0    0
</event>
<event>
   23 9999    1    0.9119999695E+02    0.7565275169E-02    0.1185000000E+00
   11   -1    0    0    0    0    0.0000000000E+00    0.0000000000E+00    0.8000000000E+02    0.8000000000E+02    0.5109988851E-03    0    0
  -11   -1    0    0    0    0    0.0000000000E+00    0.0000000000E+00   -0.8000000000E+02    0.8000000000E+02    0.5109988851E-03    0    0
  -24    2    1    2    0    0    0.1406447697E+02   -0.9975148201E+01    0.2733338356E+02    0.8800257874E+02    0.8185369110E+02    0    0
   24    2    1    2    0    0   -0.1406305504E+02    0.9976948738E+01   -0.2745031357E+02    0.7185343170E+02    0.6412555695E+02    0    0
   22    1    1    2    0    0    0.3234786618E-05    0.1533616683E-05    0.1255913377E+00    0.1255913377E+00    0.0000000000E+00    0    0
   22    1    1    2    0    0    0.9999703252E-05   -0.5878694537E-05   -0.1325897966E-01    0.1325898524E-01    0.0000000000E+00    0    0
   22    1    1    2    0    0   -0.1435057377E-02   -0.1796207041E-02    0.4596789833E-02    0.5139671732E-02    0.0000000000E+00    0    0
   15    2    3    3    0    0   -0.3889054537E+01    0.3452034760E+02    0.5229952335E+01    0.3517512512E+02    0.1777029991E+01    0    0
  -16    1    3    3    0    0    0.1795353127E+02   -0.4449549484E+02    0.2210343170E+02    0.5282745743E+02    0.0000000000E+00    0    0
   16    1    4    4    0    0   -0.3300898361E+02    0.2560259438E+02   -0.1775832558E+02    0.4539211273E+02    0.0000000000E+00    0    0
  -15    2    4    4    0    0    0.1894592667E+02   -0.1562564468E+02   -0.9691987991E+01    0.2646131897E+02    0.1777029991E+01    0    0
   16    1    8    8    0    0   -0.9255624413E+00    0.5849471092E+01    0.8771631122E+00    0.5986851692E+01    0.2407191787E-03    0    0
  -24    2    8    8    0    0   -0.2963645220E+01    0.2867223549E+02    0.4352994919E+01    0.2918965721E+02    0.1485684872E+01    0    0
 -211    1   13   13    0    0   -0.9540534019E+00    0.9137283325E+01    0.1154990435E+01    0.9260326385E+01    0.1395680457E+00    0    0
 -211    1   13   13    0    0   -0.5915275812E+00    0.5155447960E+01    0.5992460251E+00    0.5225622177E+01    0.1395679712E+00    0    0
  211    1   13   13    0    0   -0.1595967412E+00    0.1416406989E+01    0.3099463582E+00    0.1465341568E+01    0.1395680308E+00    0    0
  111    1   13   13    0    0   -0.1061145067E+01    0.8453075409E+01    0.1610581279E+01    0.8671372414E+01    0.1349640638E+00    0    0
  111    1   13   13    0    0   -0.1973223686E+00    0.4510021210E+01    0.6782308221E+00    0.4566994667E+01    0.1349638402E+00    0    0
  -16    1   11   11    0    0    0.3529546499E+01   -0.2738023758E+01   -0.2108377695E+01    0.4939608097E+01    0.0000000000E+00    0    0
   24    2   11   11    0    0    0.1541712761E+02   -0.1288823700E+02   -0.7583992481E+01    0.2152275276E+02    0.1384744763E+01    0    0
  111    1   20   20    0    0    0.7529250622E+01   -0.6058613300E+01   -0.3420429707E+01    0.1025251007E+02    0.1349640638E+00    0    0
  111    1   20   20    0    0    0.7253620028E+00   -0.8439815640E+00   -0.3440129757E+00    0.1172610402E+01    0.1349637061E+00    0    0
  321    1   20   20    0    0    0.7162513733E+01   -0.5985641003E+01   -0.3819549084E+01    0.1009763145E+02    0.4936669469E+00    0    0
</event>
<event>
   21 9999    1    0.9119999695E+02    0.7565275169E-02    0.1185000000E+00
   11   -1    0    0    0    0    0.0000000000E+00    0.0000000000E+00    0.8000000000E+02    0.8000000000E+02    0.5109988851E-03    0    0
  -11   -1    0    0    0    0    0.0000000000E+00    0.0000000000E+00   -0.8000000000E+02    0.8000000000E+02    0.5109988851E-03    0    0
  -24    2    1    2    0    0    0.1783783078E+01   -0.5363299251E+00    0.2293598366E+02    0.8023933411E+02    0.7686886597E+02    0    0
   24    2    1    2    0    0   -0.1783783078E+01    0.5363299251E+00   -0.2293598366E+02    0.7976066589E+02    0.7636907196E+02    0    0
   15    2    3    3    0    0   -0.1844333458E+02    0.3277262688E+01    0.4577627563E+02    0.4949264908E+02    0.1777029991E+01    0    0
  -16    1    3    3    0    0    0.2022711754E+02   -0.3813592672E+01   -0.2284029198E+02    0.3074668694E+02    0.0000000000E+00    0    0
   16    1    4    4    0    0    0.1669581032E+02    0.3159993935E+02    0.2028179884E+01    0.3579692459E+02    0.0000000000E+00    0    0
  -15    2    4    4    0    0   -0.1847959328E+02   -0.3106361008E+02   -0.2496416283E+02    0.4396374130E+02    0.1777029991E+01    0    0
   16    1    5    5    0    0   -0.1097921610E+01   -0.1166449636E+00    0.2652500153E+01    0.2873116016E+01    0.2291360142E-03    0    0
  -24    2    5    5    0    0   -0.1734613991E+02    0.3394036531E+01    0.4312557602E+02    0.4662148285E+02    0.1157176018E+01    0    0
  111    1   10   10    0    0   -0.2315860271E+01    0.3695915341E+00    0.5595490456E+01    0.6068569660E+01    0.1349637508E+00    0    0
  111    1   10   10    0    0   -0.4121792316E+01    0.9953737259E+00    0.1076828575E+02    0.1157385540E+02    0.1349641085E+00    0    0
  111    1   10   10    0    0   -0.3254277468E+01    0.6288484931E+00    0.8758520126E+01    0.9365664482E+01    0.1349640042E+00    0    0
 -211    1   10   10    0    0   -0.7654211044E+01    0.1400223136E+01    0.1800328445E+02    0.1961339569E+02    0.1395681202E+00    0    0
  -16    1    8    8    0    0   -0.6377790451E+01   -0.1088475704E+02   -0.9138422012E+01    0.1557770538E+02    0.5320921773E-03    0    0
   24    2    8    8    0    0   -0.1210253048E+02   -0.2018007469E+02   -0.1582672215E+02    0.2838776398E+02    0.1293592095E+01    0    0
  211    1   16   16    0    0   -0.1239628196E+01   -0.2316386700E+01   -0.1719415903E+01    0.3142959833E+01    0.1395680606E+00    0    0
  211    1   16   16    0    0   -0.5908654213E+01   -0.9562866211E+01   -0.7961040974E+01    0.1377527714E+02    0.1395682245E+00    0    0
 -211    1   16   16    0    0   -0.1644781113E+01   -0.2444650650E+01   -0.1933282733E+01    0.3526851654E+01    0.1395679861E+00    0    0
  111    1   16   16    0    0   -0.1318945765E+01   -0.2403697729E+01   -0.1773611784E+01    0.3268224955E+01    0.1349639595E+00    0    0
  111    1   16   16    0    0   -0.1990519881E+01   -0.3452471733E+01   -0.2439369440E+01    0.4674448490E+01    0.1349641681E+00    0    0
</event>
<event>
   17 9999    1    0.9119999695E+02    0.7565275169E-02    0.1185000000E+00
   11   -1    0    0    0    0    0.0000000000E+00    0.0000000000E+00    0.8000000000E+02    0.8000000000E+02    0.5109988851E-03    0    0
  -11   -1    0    0    0    0    0.0000000000E+00    0.0000000000E+00   -0.8000000000E+02    0.8000000000E+02    0.5109988851E-03    0    0
  -24    2    1    2    0    0    0.8080015182E+01    0.3650813341E+01    0.3234471893E+02    0.8678849792E+02    0.8004653168E+02    0    0
   24    2    1    2    0    0   -0.8080015182E+01   -0.3650813341E+01   -0.3234471893E+02    0.7321150208E+02    0.6507786560E+02    0    0
   15    2    3    3    0    0   -0.1461859131E+02   -0.3100785065E+02    0.1622557491E+00    0.3432745361E+02    0.1777029991E+01    0    0
  -16    1    3    3    0    0    0.2269860649E+02    0.3465866470E+02    0.3218246460E+02    0.5246104050E+02    0.0000000000E+00    0    0
   16    1    4    4    0    0   -0.9756167412E+01   -0.3096951103E+02   -0.2331450939E+01    0.3255348206E+02    0.0000000000E+00    0    0
  -15    2    4    4    0    0    0.1676151633E+01    0.2731869888E+02   -0.3001326942E+02    0.4065802383E+02    0.1777029991E+01    0    0
   16    1    5    5    0    0   -0.2939596415E+01   -0.5501844883E+01   -0.1616710722E+00    0.6240005016E+01    0.1220703125E-03    0    0
  -24    2    5    5    0    0   -0.1167957020E+02   -0.2550722694E+02    0.3239332139E+00    0.2808880043E+02    0.1358261466E+01    0    0
 -211    1   10   10    0    0   -0.3100805044E+01   -0.7092833996E+01    0.3487104475E+00    0.7750120163E+01    0.1395681202E+00    0    0
 -211    1   10   10    0    0   -0.2174834728E+01   -0.4243338108E+01    0.5637884140E-01    0.4770585060E+01    0.1395680010E+00    0    0
 -211    1   10   10    0    0   -0.1370112538E+01   -0.2721293211E+01   -0.5656823143E-01    0.3050462961E+01    0.1395680010E+00    0    0
  211    1   10   10    0    0   -0.7980387211E+00   -0.1554479003E+01    0.4787717015E-02    0.1752932668E+01    0.1395680010E+00    0    0
  211    1   10   10    0    0   -0.4235778809E+01   -0.9895282745E+01   -0.2937557735E-01    0.1076470089E+02    0.1395680457E+00    0    0
  -16    1    8    8    0    0    0.8949387074E+00    0.9035850525E+01   -0.1109802914E+02    0.1433923912E+02    0.3452669771E-03    0    0
  211    1    8    8    0    0    0.7812789083E+00    0.1828392410E+02   -0.1891642380E+02    0.2632038879E+02    0.1395685971E+00    0    0
</event>
<event>
   22 9999    1    0.9119999695E+02    0.7565275169E-02    0.1185000000E+00
   11   -1    0    0    0    0    0.0000000000E+00    0.0000000000E+00    0.8000000000E+02    0.8000000000E+02    0.5109988851E-03    0    0
  -11   -1    0    0    0    0    0.0000000000E+00    0.0000000000E+00   -0.8000000000E+02    0.8000000000E+02    0.5109988851E-03    0    0
  -24    2    1    2    0    0   -0.2288672447E+02   -0.2343520373E+00    0.9224501610E+01    0.8322760773E+02    0.7948513031E+02    0    0
   24    2    1    2    0    0    0.2287717819E+02    0.2331398427E+00   -0.9400917053E+01    0.7659571075E+02    0.7249211121E+02    0    0
   22    1    1    2    0    0    0.9545164183E-02    0.1212178729E-02    0.1762462258E+00    0.1765086651E+00    0.0000000000E+00    0    0
   22    1    1    2    0    0   -0.1233635505E-07    0.5303660622E-08    0.1694303501E-03    0.1694303501E-03    0.0000000000E+00    0    0
   15    2    3    3    0    0   -0.9863937378E+01   -0.1349209023E+02    0.4217338562E+02    0.4539918518E+02    0.1777029991E+01    0    0
  -16    1    3    3    0    0   -0.1302278614E+02    0.1325773811E+02   -0.3294888306E+02    0.3782842255E+02    0.0000000000E+00    0    0
   16    1    4    4    0    0    0.2502833939E+02   -0.2590771675E+02    0.1656157303E+02    0.3964736176E+02    0.0000000000E+00    0    0
  -15    2    4    4    0    0   -0.2151160240E+01    0.2614085770E+02   -0.2596249008E+02    0.3694835281E+02    0.1777029991E+01    0    0
   16    1    7    7    0    0   -0.2227748632E+00   -0.4039716721E+00    0.1759662867E+01    0.1819130301E+01    0.9650505672E-04    0    0
  -24    2    7    7    0    0   -0.9641551018E+01   -0.1308864975E+02    0.4041538239E+02    0.4358184433E+02    0.1304437160E+01    0    0
 -211    1   12   12    0    0   -0.1601263881E+01   -0.2140069008E+01    0.7344816685E+01    0.7817272663E+01    0.1395680010E+00    0    0
 -211    1   12   12    0    0   -0.5595045686E+00   -0.7662780285E+00    0.2663266420E+01    0.2830670357E+01    0.1395680159E+00    0    0
 -211    1   12   12    0    0   -0.3703569412E+01   -0.5142503738E+01    0.1519491386E+02    0.1646410179E+02    0.1395679712E+00    0    0
  211    1   12   12    0    0   -0.1763797522E+01   -0.2313810110E+01    0.7419809818E+01    0.7971057415E+01    0.1395680159E+00    0    0
  211    1   12   12    0    0   -0.2013415813E+01   -0.2725989580E+01    0.7792577267E+01    0.8498741150E+01    0.1395680457E+00    0    0
  -16    1   10   10    0    0   -0.6422722340E+00    0.6922599316E+01   -0.6357668400E+01    0.9420978546E+01    0.4228639591E-03    0    0
   24    2   10   10    0    0   -0.1508972764E+01    0.1921928787E+02   -0.1960584641E+02    0.2752882957E+02    0.1337607384E+01    0    0
  310    1   19   19    0    0   -0.7167477012E+00    0.7606213570E+01   -0.7782360554E+01    0.1091700840E+02    0.4977199733E+00    0    0
  211    1   19   19    0    0    0.5614531413E-01    0.1256560087E+01   -0.1273878932E+01    0.1795645356E+01    0.1395680308E+00    0    0
  310    1   19   19    0    0   -0.8483702540E+00    0.1035651398E+02   -0.1054960632E+02    0.1481617451E+02    0.4977200031E+00    0    0
</event>
<event>
   18 9999    1    0.9119999695E+02    0.7565275169E-02    0.1185000000E+00
   11   -1    0    0    0    0    0.0000000000E+00    0.0000000000E+00    0.8000000000E+02    0.8000000000E+02    0.5109988851E-03    0    0
  -11   -1    0    0    0    0    0.0000000000E+00    0.0000000000E+00   -0.8000000000E+02    0.8000000000E+02    0.5109988851E-03    0    0
  -24    2    1    2    0    0   -0.2654872417E+01   -0.3221259594E+01   -0.1207634258E+02    0.8249725342E+02    0.8150174713E+02    0    0
   24    2    1    2    0    0    0.2652777910E+01    0.3218328714E+01    0.1206328106E+02    0.7748665619E+02    0.7642816162E+02    0    0
   22    1    1    2    0    0    0.5027052612E-04    0.3309827662E-04    0.1250109635E-01    0.1250124071E-01    0.0000000000E+00    0    0
   22    1    1    2    0    0    0.2044210909E-02    0.2897874219E-02    0.5602781894E-03    0.3590318374E-02    0.0000000000E+00    0    0
   15    2    3    3    0    0    0.2188227463E+02    0.2662957764E+02    0.1249553490E+02    0.3670510483E+02    0.1777029991E+01    0    0
  -16    1    3    3    0    0   -0.2453714561E+02   -0.2985083771E+02   -0.2457187653E+02    0.4579215240E+02    0.0000000000E+00    0    0
   16    1    4    4    0    0   -0.1806159782E+02    0.1821076775E+02    0.3479498672E+02    0.4322666550E+02    0.0000000000E+00    0    0
  -15    2    4    4    0    0    0.2071437645E+02   -0.1499243832E+02   -0.2273170471E+02    0.3425999069E+02    0.1777029991E+01    0    0
   16    1    7    7    0    0    0.2033930206E+02    0.2464202881E+02    0.1110297108E+02    0.3382592010E+02    0.0000000000E+00    0    0
 -211    1    7    7    0    0    0.1543834448E+01    0.1988598466E+01    0.1393056273E+01    0.2880630732E+01    0.1395679563E+00    0    0
  -16    1   10   10    0    0    0.7765317917E+01   -0.5141172886E+01   -0.8444965363E+01    0.1257176495E+02    0.4587798030E-03    0    0
   24    2   10   10    0    0    0.1294987488E+02   -0.9851856232E+01   -0.1428763580E+02    0.2168957520E+02    0.1242092371E+01    0    0
  111    1   14   14    0    0    0.4109127998E+01   -0.3313571692E+01   -0.4437530994E+01    0.6897433281E+01    0.1349641681E+00    0    0
  111    1   14   14    0    0    0.1568092227E+01   -0.1089201927E+01   -0.1751035810E+01    0.2594150305E+01    0.1349631995E+00    0    0
  111    1   14   14    0    0    0.5758121490E+01   -0.3994807959E+01   -0.6018585205E+01    0.9238833427E+01    0.1349641830E+00    0    0
  211    1   14   14    0    0    0.1514534473E+01   -0.1454275846E+01   -0.2080485106E+01    0.2959160566E+01    0.1395680159E+00    0    0
</event>
<event>
   18 9999    1    0.9119999695E+02    0.7565275169E-02    0.1185000000E+00
   11   -1    0    0    0    0    0.0000000000E+00    0.0000000000E+00    0.8000000000E+02    0.8000000000E+02    0.5109988851E-03    0    0
  -11   -1    0    0    0    0    0.0000000000E+00    0.0000000000E+00   -0.8000000000E+02    0.8000000000E+02    0.5109988851E-03    0    0
  -24    2    1    2    0    0    0.1088805771E+02    0.2898292160E+02    0.1889419746E+02    0.8956574249E+02    0.8189305115E+02    0    0
   24    2    1    2    0    0   -0.1088791370E+02   -0.2898328972E+02   -0.1882310104E+02    0.7036315918E+02    0.6031655884E+02    0    0
   22    1    1    2    0    0   -0.1446032984E-03    0.3671285522E-03   -0.7109671831E-01    0.7109781355E-01    0.0000000000E+00    0    0
   15    2    3    3    0    0   -0.2183927536E+01    0.4900106430E+02    0.3539762115E+02    0.6051465225E+02    0.1777029991E+01    0    0
  -16    1    3    3    0    0    0.1307198524E+02   -0.2001814461E+02   -0.1650342178E+02    0.2905109024E+02    0.0000000000E+00    0    0
   16    1    4    4    0    0    0.2137630844E+02   -0.8269485474E+01   -0.2210250282E+02    0.3184103584E+02    0.0000000000E+00    0    0
  -15    2    4    4    0    0   -0.3226422119E+02   -0.2071380424E+02    0.3279401541E+01    0.3852212143E+02    0.1777029991E+01    0    0
   16    1    6    6    0    0   -0.7725791335E+00    0.1539588642E+02    0.1116152000E+02    0.1903180885E+02    0.6908710930E-04    0    0
  -24    2    6    6    0    0   -0.1411434412E+01    0.3360710526E+02    0.2423749352E+02    0.4148522568E+02    0.1462242961E+01    0    0
 -321    1   11   11    0    0   -0.3200041652E+00    0.5179678440E+01    0.3947758675E+01    0.6539111137E+01    0.4936669171E+00    0    0
  130    1   11   11    0    0   -0.1091430306E+01    0.2842742920E+02    0.2028973579E+02    0.3494611740E+02    0.4977199137E+00    0    0
  -16    1    9    9    0    0   -0.5959101200E+01   -0.3370116472E+01    0.9491877556E+00    0.6911550522E+01    0.1930101134E-03    0    0
20213    2    9    9    0    0   -0.2630639076E+02   -0.1734450340E+02    0.2330343008E+01    0.3161208916E+02    0.1017706752E+01    0    0
  111    1   15   15    0    0   -0.1877399063E+02   -0.1260753727E+02    0.1672159672E+01    0.2267657471E+02    0.1349638551E+00    0    0
  111    1   15   15    0    0   -0.3911277533E+01   -0.2461105108E+01    0.1421920359E+00    0.4625317574E+01    0.1349639595E+00    0    0
  211    1   15   15    0    0   -0.3621123552E+01   -0.2275861979E+01    0.5159913301E+00    0.4310198307E+01    0.1395680457E+00    0    0
</event>
<event>
   17 9999    1    0.9119999695E+02    0.7565275169E-02    0.1185000000E+00
   11   -1    0    0    0    0    0.0000000000E+00    0.0000000000E+00    0.8000000000E+02    0.8000000000E+02    0.5109988851E-03    0    0
  -11   -1    0    0    0    0    0.0000000000E+00    0.0000000000E+00   -0.8000000000E+02    0.8000000000E+02    0.5109988851E-03    0    0
  -24    2    1    2    0    0   -0.7401467562E+00    0.1455399245E+00   -0.1591857529E+02    0.7875035095E+02    0.7712099457E+02    0    0
   24    2    1    2    0    0    0.7401467562E+00   -0.1455399245E+00    0.1591857529E+02    0.8124964905E+02    0.7967142487E+02    0    0
   15    2    3    3    0    0    0.3519932938E+02    0.1441803360E+02   -0.1178014374E+02    0.3985977936E+02    0.1777029991E+01    0    0
  -16    1    3    3    0    0   -0.3593947601E+02   -0.1427249432E+02   -0.4138431549E+01    0.3889057159E+02    0.0000000000E+00    0    0
   16    1    4    4    0    0    0.1628396225E+02    0.3361726379E+02    0.2228705597E+02    0.4349713516E+02    0.0000000000E+00    0    0
  -15    2    4    4    0    0   -0.1554381466E+02   -0.3376280212E+02   -0.6368480206E+01    0.3775251389E+02    0.1777029991E+01    0    0
   16    1    5    5    0    0    0.1185524821E+01    0.7575684786E+00   -0.3704571128E+00    0.1454859972E+01    0.1239629928E-03    0    0
  -24    2    5    5    0    0    0.3401518631E+02    0.1366103268E+02   -0.1141015053E+02    0.3840648651E+02    0.1099971652E+01    0    0
 -321    1   10   10    0    0    0.2204390144E+02    0.8959572792E+01   -0.7551631451E+01    0.2496954918E+02    0.4936670661E+00    0    0
  310    1   10   10    0    0    0.1197128868E+02    0.4701460838E+01   -0.3858519793E+01    0.1343694115E+02    0.4977200925E+00    0    0
  -16    1    8    8    0    0   -0.6683094501E+00   -0.1043199420E+01   -0.1639911234E+00    0.1249718308E+01    0.4382753395E-03    0    0
   24    2    8    8    0    0   -0.1487611675E+02   -0.3272093201E+02   -0.6204740047E+01    0.3650428391E+02    0.1451069355E+01    0    0
  111    1   14   14    0    0   -0.1954048991E+01   -0.3961575031E+01   -0.6407650113E+00    0.4465554714E+01    0.1349640191E+00    0    0
  111    1   14   14    0    0   -0.6219497204E+01   -0.1270273972E+02   -0.2353543043E+01    0.1433872795E+02    0.1349640936E+00    0    0
  321    1   14   14    0    0   -0.6702572823E+01   -0.1605662155E+02   -0.3210432768E+01    0.1770000458E+02    0.4936671257E+00    0    0
</event>
<event>
   22 9999    1    0.9119999695E+02    0.7565275169E-02    0.1185000000E+00
   11   -1    0    0    0    0    0.0000000000E+00    0.0000000000E+00    0.8000000000E+02    0.8000000000E+02    0.5109988851E-03    0    0
  -11   -1    0    0    0    0    0.0000000000E+00    0.0000000000E+00   -0.8000000000E+02    0.8000000000E+02    0.5109988851E-03    0    0
  -24    2    1    2    0    0   -0.4166204453E+01   -0.4871372879E+00    0.9994956017E+01    0.7941429138E+02    0.7867105865E+02    0    0
   24    2    1    2    0    0    0.4166208267E+01    0.4872090220E+00   -0.9973841667E+01    0.8056459045E+02    0.7983471680E+02    0    0
   22    1    1    2    0    0   -0.3731631296E-05   -0.7172704500E-04   -0.2111437917E-01    0.2111450210E-01    0.0000000000E+00    0    0
   15    2    3    3    0    0    0.3284779739E+02   -0.7375951290E+01    0.2157357788E+02    0.4002448654E+02    0.1777029991E+01    0    0
  -16    1    3    3    0    0   -0.3701400375E+02    0.6888813972E+01   -0.1157862186E+02    0.3938980484E+02    0.0000000000E+00    0    0
   16    1    4    4    0    0    0.2513645554E+02    0.1830091858E+02    0.2219084740E+02    0.3819945908E+02    0.0000000000E+00    0    0
  -15    2    4    4    0    0   -0.2097024727E+02   -0.1781371117E+02   -0.3216468811E+02    0.4236513519E+02    0.1777029991E+01    0    0
   16    1    6    6    0    0    0.7142983079E+00   -0.7756989449E-01    0.6040943861E+00    0.9387061000E+00    0.3051757812E-04    0    0
  -24    2    6    6    0    0    0.3213479614E+02   -0.7298672199E+01    0.2097033310E+02    0.3908735657E+02    0.1466660500E+01    0    0
 -211    1   11   11    0    0    0.5379642963E+01   -0.1561803102E+01    0.3523936749E+01    0.6619471073E+01    0.1395681053E+00    0    0
 -211    1   11   11    0    0    0.8504851341E+01   -0.1786926508E+01    0.5554141045E+01    0.1031472588E+02    0.1395680159E+00    0    0
  211    1   11   11    0    0    0.4234667301E+01   -0.1006779075E+01    0.2783653021E+01    0.5168579578E+01    0.1395680010E+00    0    0
  111    1   11   11    0    0    0.7579387665E+01   -0.1539425731E+01    0.4867614269E+01    0.9139410973E+01    0.1349640638E+00    0    0
  111    1   11   11    0    0    0.2686239481E+01   -0.5993746519E+00    0.1948499799E+01    0.3374907255E+01    0.1349640042E+00    0    0
  111    1   11   11    0    0    0.3750005722E+01   -0.8043631911E+00    0.2292488575E+01    0.4470264435E+01    0.1349639893E+00    0    0
  -16    1    9    9    0    0   -0.5298896313E+01   -0.4917605400E+01   -0.9300507545E+01    0.1177966785E+02    0.3860202269E-03    0    0
20213    2    9    9    0    0   -0.1567217636E+02   -0.1289680576E+02   -0.2286544609E+02    0.3058713341E+02    0.8940498829E+00    0    0
  111    1   19   19    0    0   -0.4178397655E+01   -0.3064781904E+01   -0.5776257515E+01    0.7761137962E+01    0.1349640340E+00    0    0
  111    1   19   19    0    0   -0.5478219032E+01   -0.4459017277E+01   -0.8070112228E+01    0.1072560692E+02    0.1349638700E+00    0    0
  211    1   19   19    0    0   -0.6015559196E+01   -0.5373005867E+01   -0.9019075394E+01    0.1210038567E+02    0.1395680606E+00    0    0
</event>
<event>
   19 9999    1    0.9119999695E+02    0.7565275169E-02    0.1185000000E+00
   11   -1    0    0    0    0    0.0000000000E+00    0.0000000000E+00    0.8000000000E+02    0.8000000000E+02    0.5109988851E-03    0    0
  -11   -1    0    0    0    0    0.0000000000E+00    0.0000000000E+00   -0.8000000000E+02    0.8000000000E+02    0.5109988851E-03    0    0
  -24    2    1    2    0    0   -0.1016557693E+02    0.1763472366E+02    0.1687369919E+02    0.7246627808E+02    0.6747086334E+02    0    0
   24    2    1    2    0    0    0.9189144135E+01   -0.1813795090E+02   -0.1522909641E+02    0.8421328735E+02    0.8029026794E+02    0    0
   22    1    1    2    0    0    0.1055270259E-03    0.1610307663E-04   -0.2121444464E+01    0.2121444464E+01    0.0000000000E+00    0    0
   22    1    1    2    0    0    0.9763085842E+00    0.5029443502E+00    0.4780338109E+00    0.1197767854E+01    0.0000000000E+00    0    0
   22    1    1    2    0    0    0.1870309097E-04    0.2660284517E-03   -0.1191660180E-02    0.1221136772E-02    0.0000000000E+00    0    0
   15    2    3    3    0    0   -0.3178582191E+02   -0.1142173862E+02    0.4137170792E+01    0.3407445526E+02    0.1777029991E+01    0    0
  -16    1    3    3    0    0    0.2162024498E+02    0.2905646324E+02    0.1273652744E+02    0.3839182281E+02    0.0000000000E+00    0    0
   16    1    4    4    0    0    0.2214899254E+02    0.2567536354E+02    0.4887787342E+01    0.3425919724E+02    0.0000000000E+00    0    0
  -15    2    4    4    0    0   -0.1295984936E+02   -0.4381331253E+02   -0.2011688423E+02    0.4995409012E+02    0.1777029991E+01    0    0
   16    1    8    8    0    0   -0.3005242109E+01   -0.8184097409E+00    0.5551469922E+00    0.3163773537E+01    0.4747420899E-03    0    0
  -24    2    8    8    0    0   -0.2878182983E+02   -0.1060377884E+02    0.3582186699E+01    0.3091202354E+02    0.1373785019E+01    0    0
 -321    1   13   13    0    0   -0.9454525948E+01   -0.3158993959E+01    0.1173164368E+01    0.1004924488E+02    0.4936670065E+00    0    0
  111    1   13   13    0    0   -0.8389601707E+01   -0.3259148598E+01    0.1046093345E+01    0.9062007904E+01    0.1349635422E+00    0    0
  130    1   13   13    0    0   -0.1093770504E+02   -0.4185637474E+01    0.1362929463E+01    0.1180077362E+02    0.4977200627E+00    0    0
  -16    1   11   11    0    0   -0.7380012512E+01   -0.2243636703E+02   -0.9930659294E+01    0.2562173271E+02    0.1726334885E-03    0    0
  -13    1   11   11    0    0   -0.4535331130E+00   -0.1741903305E+01   -0.7583740354E+00    0.1956071138E+01    0.1056589857E+00    0    0
   14    1   11   11    0    0   -0.5126814365E+01   -0.1963676834E+02   -0.9428643227E+01    0.2237825394E+02    0.3860202269E-03    0    0
</event>
<event>
   22 9999    1    0.9119999695E+02    0.7565275169E-02    0.1185000000E+00
   11   -1    0    0    0    0    0.0000000000E+00    0.0000000000E+00    0.8000000000E+02    0.8000000000E+02    0.5109988851E-03    0    0
  -11   -1    0    0    0    0    0.0000000000E+00    0.0000000000E+00   -0.8000000000E+02    0.8000000000E+02    0.5109988851E-03    0    0
  -24    2    1    2    0    0   -0.2169390440E+01    0.6466114044E+01    0.5708022594E+01    0.7724650574E+02    0.7673281097E+02    0    0
   24    2    1    2    0    0    0.2140030146E+01   -0.6446974754E+01   -0.4725370407E+01    0.8175206757E+02    0.8133221436E+02    0    0
   22    1    1    2    0    0    0.9792302080E-05    0.9323580889E-04   -0.9575687051E+00    0.9575687051E+00    0.0000000000E+00    0    0
   22    1    1    2    0    0    0.2657621913E-01   -0.1717885211E-01   -0.2157460898E-01    0.3829976544E-01    0.0000000000E+00    0    0
   22    1    1    2    0    0    0.2759368857E-02   -0.2064501634E-02   -0.1875520218E-02    0.3923500888E-02    0.0000000000E+00    0    0
   22    1    1    2    0    0    0.1486738347E-04    0.1074549800E-04   -0.1633594744E-02    0.1633697771E-02    0.0000000000E+00    0    0
   15    2    3    3    0    0   -0.3162307167E+02    0.2180050278E+02    0.1718043137E+02    0.4211419678E+02    0.1777029991E+01    0    0
  -16    1    3    3    0    0    0.2945368004E+02   -0.1533438778E+02   -0.1147240925E+02    0.3513230515E+02    0.0000000000E+00    0    0
   16    1    4    4    0    0   -0.2035288620E+02   -0.3378540039E+02   -0.1869910431E+02    0.4365031433E+02    0.0000000000E+00    0    0
  -15    2    4    4    0    0    0.2249291611E+02    0.2733842659E+02    0.1397373486E+02    0.3810175705E+02    0.1777029991E+01    0    0
   16    1    9    9    0    0   -0.8377147675E+01    0.6048676968E+01    0.4752365589E+01    0.1137312889E+02    0.5142913433E-03    0    0
  -24    2    9    9    0    0   -0.2324716949E+02    0.1575268459E+02    0.1242874432E+02    0.3074272919E+02    0.1436543465E+01    0    0
 -211    1   14   14    0    0   -0.7805505276E+01    0.5052511692E+01    0.3623583794E+01    0.9980161667E+01    0.1395678520E+00    0    0
  111    1   14   14    0    0   -0.8689363480E+01    0.5744321346E+01    0.4545555115E+01    0.1136585045E+02    0.1349641979E+00    0    0
   22    1   14   14    0    0   -0.6752302647E+01    0.4955852509E+01    0.4259605885E+01    0.9396718025E+01    0.2114319796E-03    0    0
  -16    1   12   12    0    0    0.2458647966E+01    0.2606528044E+01    0.1508684635E+01    0.3887810230E+01    0.4037096223E-03    0    0
   24    2   12   12    0    0    0.2003515244E+02    0.2473297501E+02    0.1246560001E+02    0.3421544647E+02    0.1475885510E+01    0    0
  310    1   19   19    0    0    0.6430410862E+01    0.7743056774E+01    0.3890130281E+01    0.1080212688E+02    0.4977200329E+00    0    0
  211    1   19   19    0    0    0.8081090927E+01    0.9765163422E+01    0.4821494579E+01    0.1356203365E+02    0.1395684630E+00    0    0
  130    1   19   19    0    0    0.5523648739E+01    0.7224751472E+01    0.3753973484E+01    0.9851283073E+01    0.4977200329E+00    0    0
</event>
<event>
   16 9999    1    0.9119999695E+02    0.7565275169E-02    0.1185000000E+00
   11   -1    0    0    0    0    0.0000000000E+00    0.0000000000E+00    0.8000000000E+02    0.8000000000E+02    0.5109988851E-03    0    0
  -11   -1    0    0    0    0    0.0000000000E+00    0.0000000000E+00   -0.8000000000E+02    0.8000000000E+02    0.5109988851E-03    0    0
  -24    2    1    2    0    0    0.1679430199E+02    0.1281079483E+02    0.2413212204E+02    0.8671052551E+02    0.8056172180E+02    0    0
   24    2    1    2    0    0   -0.1679430199E+02   -0.1281079483E+02   -0.2413212204E+02    0.7328947449E+02    0.6590009308E+02    0    0
   15    2    3    3    0    0    0.2759298897E+02    0.9285923958E+01    0.5032152939E+02    0.5816369629E+02    0.1777029991E+01    0    0
  -16    1    3    3    0    0   -0.1079868698E+02    0.3524870396E+01   -0.2618940926E+02    0.2854682922E+02    0.0000000000E+00    0    0
   16    1    4    4    0    0    0.6303664207E+01   -0.2652916336E+02   -0.3490289688E+02    0.4429159164E+02    0.0000000000E+00    0    0
  -15    2    4    4    0    0   -0.2309796524E+02    0.1371836853E+02    0.1077077675E+02    0.2899788094E+02    0.1777029991E+01    0    0
   16    1    5    5    0    0    0.1922928214E+01    0.7723854780E+00    0.4394486904E+01    0.4858574390E+01    0.1220703125E-03    0    0
   13    1    5    5    0    0    0.1766648102E+02    0.6261573315E+01    0.3190036583E+02    0.3699940872E+02    0.1056589037E+00    0    0
  -14    1    5    5    0    0    0.8004667282E+01    0.2252331495E+01    0.1402866077E+02    0.1630800438E+02    0.6103515625E-04    0    0
  -16    1    8    8    0    0   -0.1861831903E+01    0.1224868178E+01    0.7797846794E+00    0.2361098051E+01    0.3823841689E-03    0    0
   24    2    8    8    0    0   -0.2123704338E+02    0.1249404049E+02    0.9991415977E+01    0.2663792419E+02    0.1624067545E+01    0    0
  321    1   13   13    0    0   -0.7853057861E+01    0.5005571365E+01    0.4177884102E+01    0.1021883965E+02    0.4936669469E+00    0    0
  111    1   13   13    0    0   -0.4427518368E+01    0.2442366600E+01    0.1720361471E+01    0.5342839241E+01    0.1349640042E+00    0    0
  310    1   13   13    0    0   -0.8956466675E+01    0.5046102047E+01    0.4093169689E+01    0.1107624531E+02    0.4977200031E+00    0    0
</event>
<event>
   19 9999    1    0.9119999695E+02    0.7565275169E-02    0.1185000000E+00
   11   -1    0    0    0    0    0.0000000000E+00    0.0000000000E+00    0.8000000000E+02    0.8000000000E+02    0.5109988851E-03    0    0
  -11   -1    0    0    0    0    0.0000000000E+00    0.0000000000E+00   -0.8000000000E+02    0.8000000000E+02    0.5109988851E-03    0    0
  -24    2    1    2    0    0    0.2489841270E+02   -0.8067727089E+01   -0.6109392643E+01    0.8378369141E+02    0.7935592651E+02    0    0
   24    2    1    2    0    0   -0.2489841843E+02    0.8067725182E+01    0.6043995857E+01    0.7615091705E+02    0.7125596619E+02    0    0
   22    1    1    2    0    0    0.4649573384E-05    0.2557049356E-05    0.6539686024E-01    0.6539686024E-01    0.0000000000E+00    0    0
   15    2    3    3    0    0    0.4379433823E+02   -0.2103184891E+02   -0.2446398735E+02    0.5442358780E+02    0.1777029991E+01    0    0
  -16    1    3    3    0    0   -0.1889592361E+02    0.1296412086E+02    0.1835459328E+02    0.2936009979E+02    0.0000000000E+00    0    0
   16    1    4    4    0    0   -0.4762628937E+02    0.1445131683E+02    0.1306659317E+02    0.5145716476E+02    0.0000000000E+00    0    0
  -15    2    4    4    0    0    0.2272787285E+02   -0.6383592129E+01   -0.7022597313E+01    0.2469374657E+02    0.1777029991E+01    0    0
   16    1    6    6    0    0    0.2871342468E+02   -0.1384778500E+02   -0.1551571846E+02    0.3545362473E+02    0.2441406250E-03    0    0
   11    1    6    6    0    0    0.6217613697E+01   -0.2531440020E+01   -0.3780936956E+01    0.7704699516E+01    0.5593964597E-03    0    0
  -12    1    6    6    0    0    0.8865022659E+01   -0.4653450966E+01   -0.5168293953E+01    0.1126740837E+02    0.8074192010E-04    0    0
  -16    1    9    9    0    0    0.4358601198E-01   -0.5700755864E-01   -0.3231130913E-01    0.7870061696E-01    0.4021747736E-03    0    0
   24    2    9    9    0    0    0.2268518066E+02   -0.6326835632E+01   -0.6990562439E+01    0.2461601830E+02    0.1560163260E+01    0    0
  211    1   14   14    0    0    0.9773865700E+01   -0.2793951511E+01   -0.2722862720E+01    0.1052464104E+02    0.1395679861E+00    0    0
  211    1   14   14    0    0    0.1421837330E+01   -0.1996227354E+00   -0.4284332097E+00    0.1504827142E+01    0.1395679712E+00    0    0
 -211    1   14   14    0    0    0.7876399994E+01   -0.2118705273E+01   -0.2517862082E+01    0.8537312508E+01    0.1395680308E+00    0    0
  111    1   14   14    0    0    0.1210556984E+01   -0.3155264556E+00   -0.4661633074E+00    0.1341837764E+01    0.1349639893E+00    0    0
  111    1   14   14    0    0    0.2402519703E+01   -0.8990291953E+00   -0.8552407622E+00    0.2707398415E+01    0.1349639744E+00    0    0
</event>
<event>
   21 9999    1    0.9119999695E+02    0.7565275169E-02    0.1185000000E+00
   11   -1    0    0    0    0    0.0000000000E+00    0.0000000000E+00    0.8000000000E+02    0.8000000000E+02    0.5109988851E-03    0    0
  -11   -1    0    0    0    0    0.0000000000E+00    0.0000000000E+00   -0.8000000000E+02    0.8000000000E+02    0.5109988851E-03    0    0
  -24    2    1    2    0    0    0.2238603354E+01   -0.1203563976E+02    0.8542900085E+01    0.8168311310E+02    0.8030742645E+02    0    0
   24    2    1    2    0    0   -0.2238603354E+01    0.1203563976E+02   -0.8542900085E+01    0.7831688690E+02    0.7688098145E+02    0    0
   15    2    3    3    0    0   -0.1755417633E+02   -0.4135349655E+02   -0.1254884481E+01    0.4497769928E+02    0.1777029991E+01    0    0
  -16    1    3    3    0    0    0.1979277992E+02    0.2931785774E+02    0.9797784805E+01    0.3670541382E+02    0.0000000000E+00    0    0
   16    1    4    4    0    0   -0.3864247131E+02   -0.1943166614E+01   -0.6446596146E+01    0.3922467422E+02    0.0000000000E+00    0    0
  -15    2    4    4    0    0    0.3640386581E+02    0.1397880650E+02   -0.2096303701E+01    0.3909220886E+02    0.1777029991E+01    0    0
   16    1    5    5    0    0   -0.1920576572E+01   -0.4362474918E+01   -0.3243472576E+00    0.4777552128E+01    0.6103515625E-04    0    0
  -24    2    5    5    0    0   -0.1563428974E+02   -0.3699264908E+02   -0.9305864573E+00    0.4020191574E+02    0.1562360525E+01    0    0
 -211    1   10   10    0    0   -0.1026629448E+01   -0.2683815241E+01   -0.8538348228E-01    0.2878124714E+01    0.1395679563E+00    0    0
 -211    1   10   10    0    0   -0.6371976852E+01   -0.1421578884E+02   -0.4293480515E+00    0.1558507442E+02    0.1395678669E+00    0    0
 -211    1   10   10    0    0   -0.3278058290E+01   -0.7388097763E+01   -0.3385694921E+00    0.8090968132E+01    0.1395679265E+00    0    0
  211    1   10   10    0    0   -0.1548878312E+01   -0.4064717293E+01   -0.2161213383E-01    0.4352114201E+01    0.1395679414E+00    0    0
  211    1   10   10    0    0   -0.1704970837E+01   -0.4637463093E+01   -0.5739339069E-01    0.4943254471E+01    0.1395679414E+00    0    0
  111    1   10   10    0    0   -0.1703775883E+01   -0.4002765179E+01    0.1720105531E-02    0.4352378845E+01    0.1349639744E+00    0    0
  -16    1    8    8    0    0    0.1046464920E+02    0.4417662144E+01   -0.5919364095E+00    0.1137431335E+02    0.2460997202E-03    0    0
   24    2    8    8    0    0    0.2594065285E+02    0.9561695099E+01   -0.1504449844E+01    0.2771943665E+02    0.1326783538E+01    0    0
  321    1   18   18    0    0    0.7436818600E+01    0.2749883175E+01   -0.3642430604E+00    0.7952641487E+01    0.4936670065E+00    0    0
  111    1   18   18    0    0    0.2429516554E+01    0.7612079978E+00   -0.5912597105E-01    0.2550235271E+01    0.1349638402E+00    0    0
  310    1   18   18    0    0    0.1607431412E+02    0.6050602436E+01   -0.1081080556E+01    0.1721655655E+02    0.4977200031E+00    0    0
</event>
<event>
   19 9999    1    0.9119999695E+02    0.7565275169E-02    0.1185000000E+00
   11   -1    0    0    0    0    0.0000000000E+00    0.0000000000E+00    0.8000000000E+02    0.8000000000E+02    0.5109988851E-03    0    0
  -11   -1    0    0    0    0    0.0000000000E+00    0.0000000000E+00   -0.8000000000E+02    0.8000000000E+02    0.5109988851E-03    0    0
  -24    2    1    2    0    0    0.3936477661E+01    0.1352964306E+02    0.3133141136E+02    0.7575321960E+02    0.6751551819E+02    0    0
   24    2    1    2    0    0   -0.3936520815E+01   -0.1352961636E+02   -0.3139254761E+02    0.8418564606E+02    0.7683218384E+02    0    0
   22    1    1    2    0    0    0.6155540859E-06   -0.7581512591E-06    0.5897497758E-01    0.5897497758E-01    0.0000000000E+00    0    0
   22    1    1    2    0    0    0.4261921640E-04   -0.2605099689E-04    0.2160536125E-02    0.2161113312E-02    0.0000000000E+00    0    0
   15    2    3    3    0    0   -0.3365607977E+01    0.3926010513E+02    0.2889603806E+02    0.4889603424E+02    0.1777029991E+01    0    0
  -16    1    3    3    0    0    0.7302085400E+01   -0.2573046303E+02    0.2435373545E+01    0.2685718155E+02    0.0000000000E+00    0    0
   16    1    4    4    0    0    0.1783998108E+02    0.2580029678E+02   -0.4284204006E+01    0.3165872002E+02    0.0000000000E+00    0    0
  -15    2    4    4    0    0   -0.2177650070E+02   -0.3932991409E+02   -0.2710834312E+02    0.5252692795E+02    0.1777029991E+01    0    0
   16    1    7    7    0    0   -0.2570851088E+01    0.2206541252E+02    0.1592732525E+02    0.2733443642E+02    0.2441406250E-03    0    0
 -213    2    7    7    0    0   -0.7948895693E+00    0.1719623947E+02    0.1296985149E+02    0.2156352425E+02    0.6526796222E+00    0    0
 -211    1   12   12    0    0   -0.4966543615E-01    0.7209500313E+01    0.5345593929E+01    0.8976314545E+01    0.1395678818E+00    0    0
  111    1   12   12    0    0   -0.7452240586E+00    0.9986739159E+01    0.7624257565E+01    0.1258720970E+02    0.1349639744E+00    0    0
  -16    1   10   10    0    0   -0.1115901828E+01   -0.1883705378E+01   -0.1491764307E+01    0.2649328947E+01    0.4628219758E-03    0    0
   24    2   10   10    0    0   -0.2066145515E+02   -0.3744775391E+02   -0.2561764526E+02    0.4987966537E+02    0.1577075720E+01    0    0
  221    1   16   16    0    0   -0.1256945038E+02   -0.2260077286E+02   -0.1510077667E+02    0.2995197296E+02    0.5488000512E+00    0    0
  211    1   16   16    0    0   -0.7792565823E+01   -0.1410760593E+02   -0.1003421211E+02    0.1898561287E+02    0.1395679116E+00    0    0
  111    1   16   16    0    0   -0.2994389236E+00   -0.7393748760E+00   -0.4826559126E+00    0.9420779347E+00    0.1349639297E+00    0    0
</event>
<event>
   16 9999    1    0.9119999695E+02    0.7565275169E-02    0.1185000000E+00
   11   -1    0    0    0    0    0.0000000000E+00    0.0000000000E+00    0.8000000000E+02    0.8000000000E+02    0.5109988851E-03    0    0
  -11   -1    0    0    0    0    0.0000000000E+00    0.0000000000E+00   -0.8000000000E+02    0.8000000000E+02    0.5109988851E-03    0    0
  -24    2    1    2    0    0    0.2149114418E+02    0.1327261639E+02    0.1258219719E+02    0.9053649902E+02    0.8602623749E+02    0    0
   24    2    1    2    0    0   -0.2149127388E+02   -0.1327278519E+02   -0.1258047867E+02    0.6946170807E+02    0.6347140121E+02    0    0
   22    1    1    2    0    0    0.7161645044E-04    0.1154049678E-03   -0.1709856442E-02    0.1715242281E-02    0.0000000000E+00    0    0
   15    2    3    3    0    0    0.8595020294E+01    0.4287658310E+02    0.3074742126E+02    0.5348679733E+02    0.1777029991E+01    0    0
  -16    1    3    3    0    0    0.1289612389E+02   -0.2960396767E+02   -0.1816522408E+02    0.3704969788E+02    0.0000000000E+00    0    0
   16    1    4    4    0    0   -0.2522522354E+02   -0.2636616516E+02    0.1436828041E+02    0.3921650314E+02    0.0000000000E+00    0    0
  -15    2    4    4    0    0    0.3733950138E+01    0.1309337997E+02   -0.2694875908E+02    0.3024520493E+02    0.1777029991E+01    0    0
   16    1    6    6    0    0    0.4319514632E+00    0.3668979883E+01    0.2758275270E+01    0.4610431194E+01    0.7157006621E-04    0    0
  -24    2    6    6    0    0    0.8163407326E+01    0.3920928955E+02    0.2799035645E+02    0.4887847137E+02    0.1278752923E+01    0    0
 -321    1   11   11    0    0    0.6048234940E+01    0.2776161957E+02    0.2002989578E+02    0.3476678085E+02    0.4936670363E+00    0    0
  310    1   11   11    0    0    0.2115171909E+01    0.1144767189E+02    0.7960460186E+01    0.1411169052E+02    0.4977200031E+00    0    0
  -16    1    9    9    0    0    0.6301363707E+00    0.3050477028E+01   -0.7347073555E+01    0.7980098248E+01    0.0000000000E+00    0    0
  -13    1    9    9    0    0    0.9352986813E+00    0.4676278591E+01   -0.8667304039E+01    0.9893214226E+01    0.1056587845E+00    0    0
   14    1    9    9    0    0    0.2168662071E+01    0.5367138863E+01   -0.1093544197E+02    0.1237308216E+02    0.1220703125E-03    0    0
</event>
<event>
   19 9999    1    0.9119999695E+02    0.7565275169E-02    0.1185000000E+00
   11   -1    0    0    0    0    0.0000000000E+00    0.0000000000E+00    0.8000000000E+02    0.8000000000E+02    0.5109988851E-03    0    0
  -11   -1    0    0    0    0    0.0000000000E+00    0.0000000000E+00   -0.8000000000E+02    0.8000000000E+02    0.5109988851E-03    0    0
  -24    2    1    2    0    0    0.3010549545E+01   -0.1418411732E+02    0.1798761749E+02    0.8376933289E+02    0.8052014160E+02    0    0
   24    2    1    2    0    0   -0.3010549545E+01    0.1418411732E+02   -0.1798761749E+02    0.7623066711E+02    0.7264508057E+02    0    0
   15    2    3    3    0    0   -0.4550522804E+01   -0.4732900620E+02    0.1363408852E+02    0.4949533463E+02    0.1777029991E+01    0    0
  -16    1    3    3    0    0    0.7561072350E+01    0.3314488983E+02    0.4353528500E+01    0.3427399445E+02    0.0000000000E+00    0    0
   16    1    4    4    0    0   -0.9929791451E+01   -0.2833179474E+02   -0.1339687157E+02    0.3287503052E+02    0.0000000000E+00    0    0
  -15    2    4    4    0    0    0.6919241905E+01    0.4251591110E+02   -0.4590745449E+01    0.4335564041E+02    0.1777029991E+01    0    0
   16    1    5    5    0    0   -0.7082431316E+00   -0.4635785103E+01    0.1392040610E+01    0.4891818523E+01    0.3811644274E-03    0    0
  -24    2    5    5    0    0   -0.3842458963E+01   -0.4269508362E+02    0.1224258423E+02    0.4460546494E+02    0.1460137486E+01    0    0
 -321    1   10   10    0    0   -0.9214985967E+00   -0.1099993706E+02    0.3289275646E+01    0.1152869511E+02    0.4936670065E+00    0    0
 -211    1   10   10    0    0   -0.3727441132E+00   -0.3942372084E+01    0.9094789028E+00    0.4065447807E+01    0.1395677626E+00    0    0
  321    1   10   10    0    0   -0.2548216105E+01   -0.2775277138E+02    0.8043829918E+01    0.2901132011E+02    0.4936669469E+00    0    0
  -16    1    8    8    0    0    0.5810140371E+00    0.2439750433E+01   -0.4559265375E+00    0.2549083710E+01    0.1930101134E-03    0    0
   24    2    8    8    0    0    0.6338500500E+01    0.4007783890E+02   -0.4134999752E+01    0.4080826569E+02    0.1344090581E+01    0    0
  211    1   15   15    0    0    0.1331859946E+01    0.7626255512E+01   -0.6122112274E+00    0.7767104149E+01    0.1395684332E+00    0    0
  211    1   15   15    0    0    0.1419510961E+01    0.1080149460E+02   -0.1347088814E+01    0.1097822475E+02    0.1395686120E+00    0    0
 -211    1   15   15    0    0    0.9017440081E+00    0.7153911114E+01   -0.6833912730E+00    0.7244176388E+01    0.1395678818E+00    0    0
  111    1   15   15    0    0    0.2685384750E+01    0.1449617100E+02   -0.1492308259E+01    0.1481875420E+02    0.1349640340E+00    0    0
</event>
<event>
   20 9999    1    0.9119999695E+02    0.7565275169E-02    0.1185000000E+00
   11   -1    0    0    0    0    0.0000000000E+00    0.0000000000E+00    0.8000000000E+02    0.8000000000E+02    0.5109988851E-03    0    0
  -11   -1    0    0    0    0    0.0000000000E+00    0.0000000000E+00   -0.8000000000E+02    0.8000000000E+02    0.5109988851E-03    0    0
  -24    2    1    2    0    0   -0.1147227192E+02   -0.3359779835E+01    0.1063714695E+02    0.8035311127E+02    0.7874371338E+02    0    0
   24    2    1    2    0    0    0.1147317982E+02    0.3358872414E+01   -0.1063668919E+02    0.7964552307E+02    0.7802149963E+02    0    0
   22    1    1    2    0    0   -0.9083191981E-03    0.9074201807E-03   -0.4575072089E-03    0.1362999668E-02    0.0000000000E+00    0    0
   15    2    3    3    0    0    0.2157896233E+02    0.1627340126E+02    0.2729792213E+02    0.3845529556E+02    0.1777029991E+01    0    0
  -16    1    3    3    0    0   -0.3305123520E+02   -0.1963318062E+02   -0.1666077614E+02    0.4189781952E+02    0.0000000000E+00    0    0
   16    1    4    4    0    0    0.4346276855E+02    0.1043914127E+02    0.1332441092E+01    0.4471871567E+02    0.0000000000E+00    0    0
  -15    2    4    4    0    0   -0.3198958969E+02   -0.7080268383E+01   -0.1196913052E+02    0.3492680740E+02    0.1777029991E+01    0    0
   16    1    6    6    0    0    0.7797204494E+01    0.6392515659E+01    0.1083907413E+02    0.1480358696E+02    0.5033087800E-03    0    0
  -24    2    6    6    0    0    0.1378260517E+02    0.9881525040E+01    0.1645992088E+02    0.2365321922E+02    0.9700312614E+00    0    0
 -211    1   11   11    0    0    0.1542254686E+01    0.1021065712E+01    0.1871862650E+01    0.2635236979E+01    0.1395679712E+00    0    0
 -211    1   11   11    0    0    0.1229686022E+01    0.8527088761E+00    0.1370332718E+01    0.2033846378E+01    0.1395679712E+00    0    0
  211    1   11   11    0    0    0.1859928131E+01    0.1243812799E+01    0.1989671588E+01    0.2997444868E+01    0.1395680159E+00    0    0
  111    1   11   11    0    0    0.9150737762E+01    0.6763938904E+01    0.1122805595E+02    0.1598669243E+02    0.1349642128E+00    0    0
  -16    1    9    9    0    0   -0.3534565926E+01   -0.7918027639E+00   -0.1057302833E+01    0.3773327112E+01    0.8631674427E-04    0    0
   24    2    9    9    0    0   -0.2845628357E+02   -0.6288744450E+01   -0.1091229916E+02    0.3115485764E+02    0.1496152878E+01    0    0
  130    1   17   17    0    0   -0.1618126106E+02   -0.3733850002E+01   -0.6175121307E+01    0.1772440910E+02    0.4977201223E+00    0    0
  211    1   17   17    0    0   -0.4020208836E+01   -0.7286085486E+00   -0.1291058183E+01    0.4287103653E+01    0.1395680308E+00    0    0
  130    1   17   17    0    0   -0.8254815102E+01   -0.1826286197E+01   -0.3446120024E+01    0.9143344879E+01    0.4977199435E+00    0    0
</event>
<event>
   22 9999    1    0.9119999695E+02    0.7565275169E-02    0.1185000000E+00
   11   -1    0    0    0    0    0.0000000000E+00    0.0000000000E+00    0.8000000000E+02    0.8000000000E+02    0.5109988851E-03    0    0
  -11   -1    0    0    0    0    0.0000000000E+00    0.0000000000E+00   -0.8000000000E+02    0.8000000000E+02    0.5109988851E-03    0    0
  -24    2    1    2    0    0    0.2982570887E+01    0.7219713688E+01    0.3420882940E+01    0.8031771088E+02    0.7986370850E+02    0    0
   24    2    1    2    0    0   -0.2982578993E+01   -0.7219716072E+01   -0.3420989990E+01    0.7968218231E+02    0.7922453308E+02    0    0
   22    1    1    2    0    0    0.8192226232E-05    0.2392297574E-05    0.1072479790E-03    0.1075870096E-03    0.0000000000E+00    0    0
   15    2    3    3    0    0    0.4080702591E+02    0.1066471863E+02    0.4022622108E+00    0.4221693039E+02    0.1777029991E+01    0    0
  -16    1    3    3    0    0   -0.3782445526E+02   -0.3445005178E+01    0.3018620729E+01    0.3810078049E+02    0.0000000000E+00    0    0
   16    1    4    4    0    0    0.2070691681E+02    0.2362407112E+02    0.1700028038E+02    0.3571949768E+02    0.0000000000E+00    0    0
  -15    2    4    4    0    0   -0.2368949509E+02   -0.3084378624E+02   -0.2042127037E+02    0.4396268463E+02    0.1777029991E+01    0    0
   16    1    6    6    0    0    0.2096445322E+01    0.5062435865E+00    0.1223427281E+00    0.2160169601E+01    0.3051757812E-04    0    0
  -24    2    6    6    0    0    0.3871218491E+02    0.1015889549E+02    0.2799353302E+00    0.4005842209E+02    0.1662020445E+01    0    0
 -211    1   11   11    0    0    0.6249753952E+01    0.1700684309E+01    0.3274998963E+00    0.6486793518E+01    0.1395679116E+00    0    0
 -211    1   11   11    0    0    0.2490094185E+01    0.7371467948E+00   -0.1724996418E+00    0.2606374741E+01    0.1395679712E+00    0    0
 -211    1   11   11    0    0    0.5064046383E+01    0.1321615219E+01   -0.1714223176E+00    0.5238329887E+01    0.1395679563E+00    0    0
  211    1   11   11    0    0    0.1439690876E+02    0.3576223135E+01    0.7604467869E-01    0.1483528233E+02    0.1395679265E+00    0    0
  211    1   11   11    0    0    0.6893661499E+01    0.1765587568E+01    0.1829549074E+00    0.7119889259E+01    0.1395679712E+00    0    0
  111    1   11   11    0    0    0.3617720842E+01    0.1057637691E+01    0.3735780716E-01    0.3771751881E+01    0.1349639744E+00    0    0
  -16    1    9    9    0    0   -0.6507804871E+01   -0.7784061909E+01   -0.5296331882E+01    0.1144527340E+02    0.2889113675E-03    0    0
   24    2    9    9    0    0   -0.1718262482E+02   -0.2306093979E+02   -0.1512574291E+02    0.3251914215E+02    0.1287234545E+01    0    0
  211    1   19   19    0    0   -0.3890903711E+01   -0.5785566807E+01   -0.3471735477E+01    0.7790015221E+01    0.1395682395E+00    0    0
  111    1   19   19    0    0   -0.1238285637E+02   -0.1621642113E+02   -0.1070750332E+02    0.2304292297E+02    0.1349641234E+00    0    0
   22    1   19   19    0    0   -0.9088646173E+00   -0.1058952451E+01   -0.9465036988E+00    0.1686204076E+01    0.1220703125E-03    0    0
</event>
<event>
   18 9999    1    0.9119999695E+02    0.7565275169E-02    0.1185000000E+00
   11   -1    0    0    0    0    0.0000000000E+00    0.0000000000E+00    0.8000000000E+02    0.8000000000E+02    0.5109988851E-03    0    0
  -11   -1    0    0    0    0    0.0000000000E+00    0.0000000000E+00   -0.8000000000E+02    0.8000000000E+02    0.5109988851E-03    0    0
  -24    2    1    2    0    0   -0.4806457520E+01    0.1095347309E+02    0.6583613873E+01    0.8004957581E+02    0.7887654877E+02    0    0
   24    2    1    2    0    0    0.4806457520E+01   -0.1095347309E+02   -0.6583613873E+01    0.7995042419E+02    0.7877591705E+02    0    0
   15    2    3    3    0    0   -0.2911810684E+02    0.2610810661E+02   -0.1725235558E+02    0.4278199387E+02    0.1777029991E+01    0    0
  -16    1    3    3    0    0    0.2431164932E+02   -0.1515463448E+02    0.2383596802E+02    0.3726758194E+02    0.0000000000E+00    0    0
   16    1    4    4    0    0   -0.8149094582E+01   -0.1902454567E+02    0.3217495728E+02    0.3825661850E+02    0.0000000000E+00    0    0
  -15    2    4    4    0    0    0.1295555210E+02    0.8071071625E+01   -0.3875857162E+02    0.4169380188E+02    0.1777029991E+01    0    0
   16    1    5    5    0    0   -0.1173540211E+02    0.1122676945E+02   -0.7923469543E+01    0.1807045555E+02    0.2441406250E-03    0    0
 -211    1    5    5    0    0   -0.1738385201E+02    0.1488236618E+02   -0.9329565048E+01    0.2471322441E+02    0.1395677477E+00    0    0
  -16    1    8    8    0    0    0.2096925497E+01    0.1028983831E+01   -0.5649187088E+01    0.6113036633E+01    0.4264961171E-04    0    0
   24    2    8    8    0    0    0.1085913658E+02    0.7042405605E+01   -0.3311091232E+02    0.3558240891E+02    0.1503011465E+01    0    0
  211    1   12   12    0    0    0.1088331580E+01    0.7172784805E+00   -0.3367575169E+01    0.3613723278E+01    0.1395679861E+00    0    0
  211    1   12   12    0    0    0.2863798857E+01    0.2170484066E+01   -0.9309092522E+01    0.9979530334E+01    0.1395680010E+00    0    0
  211    1   12   12    0    0    0.2652851582E+01    0.1762389183E+01   -0.8226083755E+01    0.8822220802E+01    0.1395679861E+00    0    0
 -211    1   12   12    0    0    0.9428591132E+00    0.5070141554E+00   -0.3263638020E+01    0.3437565804E+01    0.1395680159E+00    0    0
 -211    1   12   12    0    0    0.1006927133E+01    0.4644253254E+00   -0.2653578997E+01    0.2879332304E+01    0.1395680010E+00    0    0
  111    1   12   12    0    0    0.2304368019E+01    0.1420814514E+01   -0.6290942192E+01    0.6850035667E+01    0.1349639744E+00    0    0
</event>
<event>
   21 9999    1    0.9119999695E+02    0.7565275169E-02    0.1185000000E+00
   11   -1    0    0    0    0    0.0000000000E+00    0.0000000000E+00    0.8000000000E+02    0.8000000000E+02    0.5109988851E-03    0    0
  -11   -1    0    0    0    0    0.0000000000E+00    0.0000000000E+00   -0.8000000000E+02    0.8000000000E+02    0.5109988851E-03    0    0
  -24    2    1    2    0    0    0.4797985554E+01   -0.3611801624E+01   -0.4657254696E+01    0.7849334717E+02    0.7812458038E+02    0    0
   24    2    1    2    0    0   -0.4797985554E+01    0.3611801624E+01    0.4657254696E+01    0.8150665283E+02    0.8115157318E+02    0    0
   15    2    3    3    0    0   -0.3270838547E+02   -0.1749814606E+02   -0.9148265839E+01    0.3824751282E+02    0.1777029991E+01    0    0
  -16    1    3    3    0    0    0.3750637054E+02    0.1388634396E+02    0.4491011620E+01    0.4024583817E+02    0.0000000000E+00    0    0
   16    1    4    4    0    0    0.9000579834E+01    0.1911722374E+02    0.3724963760E+02    0.4282538986E+02    0.0000000000E+00    0    0
  -15    2    4    4    0    0   -0.1379856586E+02   -0.1550542164E+02   -0.3259238434E+02    0.3868125916E+02    0.1777029991E+01    0    0
   16    1    5    5    0    0   -0.7192574024E+01   -0.3961810827E+01   -0.2216184855E+01    0.8505324364E+01    0.4766998172E-03    0    0
  -24    2    5    5    0    0   -0.2551709747E+02   -0.1353702259E+02   -0.6932441235E+01    0.2974369049E+02    0.1501735210E+01    0    0
  130    1   10   10    0    0   -0.1062757778E+02   -0.5649649620E+01   -0.2610515594E+01    0.1232584572E+02    0.4977200031E+00    0    0
 -211    1   10   10    0    0   -0.9002437592E+01   -0.4860610008E+01   -0.2783831120E+01    0.1060370731E+02    0.1395678818E+00    0    0
  130    1   10   10    0    0   -0.5887081623E+01   -0.3026763678E+01   -0.1538094282E+01    0.6814138889E+01    0.4977199733E+00    0    0
  -16    1    8    8    0    0   -0.1534978390E+01   -0.1577918768E+01   -0.3659904718E+01    0.4270935059E+01    0.4315837214E-04    0    0
   24    2    8    8    0    0   -0.1226412964E+02   -0.1392811203E+02   -0.2893375969E+02    0.3441184616E+02    0.1615975022E+01    0    0
  211    1   15   15    0    0   -0.4092035294E+01   -0.4371728897E+01   -0.9447350502E+01    0.1118609333E+02    0.1395680010E+00    0    0
  211    1   15   15    0    0   -0.4437698722E+00   -0.6341883540E+00   -0.1378174305E+01    0.1586811304E+01    0.1395680010E+00    0    0
 -211    1   15   15    0    0   -0.1496992946E+01   -0.1543615580E+01   -0.3214582920E+01    0.3869982004E+01    0.1395680010E+00    0    0
  111    1   15   15    0    0   -0.9065763354E+00   -0.1010665178E+01   -0.2481513977E+01    0.2831863642E+01    0.1349639893E+00    0    0
  111    1   15   15    0    0   -0.1030574083E+01   -0.1140123725E+01   -0.2368974447E+01    0.2827051640E+01    0.1349639893E+00    0    0
  111    1   15   15    0    0   -0.4294181347E+01   -0.5227790833E+01   -0.1004316425E+02    0.1211004353E+02    0.1349640340E+00    0    0
</event>
<event>
   20 9999    1    0.9119999695E+02    0.7565275169E-02    0.1185000000E+00
   11   -1    0    0    0    0    0.0000000000E+00    0.0000000000E+00    0.8000000000E+02    0.8000000000E+02    0.5109988851E-03    0    0
  -11   -1    0    0    0    0    0.0000000000E+00    0.0000000000E+00   -0.8000000000E+02    0.8000000000E+02    0.5109988851E-03    0    0
  -24    2    1    2    0    0   -0.1376435661E+02   -0.8259076118E+01    0.3724735022E+01    0.8207843781E+02    0.8040724945E+02    0    0
   24    2    1    2    0    0    0.1376431274E+02    0.8258550644E+01   -0.3846547604E+01    0.7779947662E+02    0.7602829742E+02    0    0
   22    1    1    2    0    0    0.1320031743E-05   -0.3147812322E-05    0.1214387193E+00    0.1214387193E+00    0.0000000000E+00    0    0
   22    1    1    2    0    0    0.4252693543E-04    0.5284846411E-03    0.3738195810E-03    0.6487261853E-03    0.0000000000E+00    0    0
   15    2    3    3    0    0    0.2852121735E+02   -0.1671679878E+02    0.1665270233E+02    0.3705916214E+02    0.1777029991E+01    0    0
  -16    1    3    3    0    0   -0.4228557205E+02    0.8457723618E+01   -0.1292796612E+02    0.4501927567E+02    0.0000000000E+00    0    0
   16    1    4    4    0    0    0.1664134407E+02   -0.3265156555E+02   -0.2332695246E+01    0.3672193527E+02    0.0000000000E+00    0    0
  -15    2    4    4    0    0   -0.2877031803E+01    0.4091011429E+02   -0.1513852358E+01    0.4107754135E+02    0.1777029991E+01    0    0
   16    1    7    7    0    0    0.1649527431E+01   -0.9929172993E+00    0.1072553039E+01    0.2203904629E+01    0.3051757812E-04    0    0
  -24    2    7    7    0    0    0.2687281227E+02   -0.1572453976E+02    0.1558080387E+02    0.3485671616E+02    0.1679292440E+01    0    0
 -211    1   12   12    0    0    0.4114408493E+01   -0.2138368130E+01    0.2234011412E+01    0.5148908615E+01    0.1395680159E+00    0    0
 -211    1   12   12    0    0    0.4606365681E+01   -0.2602699280E+01    0.2683905363E+01    0.5934262753E+01    0.1395680010E+00    0    0
 -211    1   12   12    0    0    0.2307152033E+01   -0.1590215445E+01    0.1461109996E+01    0.3163235188E+01    0.1395679712E+00    0    0
  211    1   12   12    0    0    0.1958608747E+01   -0.1339376211E+01    0.1304476380E+01    0.2711312294E+01    0.1395680010E+00    0    0
  211    1   12   12    0    0    0.5843183994E+01   -0.3664147139E+01    0.3354636669E+01    0.7670843601E+01    0.1395680010E+00    0    0
  111    1   12   12    0    0    0.8043093681E+01   -0.4389733791E+01    0.4542664051E+01    0.1022815418E+02    0.1349640340E+00    0    0
  -16    1   10   10    0    0   -0.8641337156E+00    0.2317421722E+02   -0.1090348840E+01    0.2321594048E+02    0.3506202775E-03    0    0
  321    1   10   10    0    0   -0.2013011456E+01    0.1773751068E+02   -0.4235632122E+00    0.1786322021E+02    0.4936670065E+00    0    0
</event>
<event>
   21 9999    1    0.9119999695E+02    0.7565275169E-02    0.1185000000E+00
   11   -1    0    0    0    0    0.0000000000E+00    0.0000000000E+00    0.8000000000E+02    0.8000000000E+02    0.5109988851E-03    0    0
  -11   -1    0    0    0    0    0.0000000000E+00    0.0000000000E+00   -0.8000000000E+02    0.8000000000E+02    0.5109988851E-03    0    0
  -24    2    1    2    0    0    0.3250375748E+01    0.3464279652E+01    0.7087525845E+01    0.8019547272E+02    0.7974029541E+02    0    0
   24    2    1    2    0    0   -0.3250712156E+01   -0.3464056730E+01   -0.7099863529E+01    0.7978070068E+02    0.7932202911E+02    0    0
   22    1    1    2    0    0   -0.3128311437E-04   -0.8698405145E-04    0.1807079092E-01    0.1807102747E-01    0.0000000000E+00    0    0
   22    1    1    2    0    0    0.3688116558E-03   -0.1474903256E-03   -0.3057949943E-02    0.3083639545E-02    0.0000000000E+00    0    0
   22    1    1    2    0    0    0.5180488643E-05    0.8724987310E-05   -0.1486745896E-02    0.1486780471E-02    0.0000000000E+00    0    0
   22    1    1    2    0    0   -0.6240864423E-05    0.2740690888E-05   -0.1188551541E-02    0.1188571099E-02    0.0000000000E+00    0    0
   15    2    3    3    0    0   -0.5714122653E+00    0.1048844719E+02    0.4253932571E+02    0.4385300446E+02    0.1777029991E+01    0    0
  -16    1    3    3    0    0    0.3821788073E+01   -0.7024167538E+01   -0.3545179749E+02    0.3634246826E+02    0.0000000000E+00    0    0
   16    1    4    4    0    0   -0.3434429169E+02   -0.1042351913E+02    0.1707450867E+02    0.3974567795E+02    0.0000000000E+00    0    0
  -15    2    4    4    0    0    0.3109357834E+02    0.6959462643E+01   -0.2417437172E+02    0.4003501892E+02    0.1777029991E+01    0    0
   16    1    9    9    0    0   -0.1049964309E+01    0.4968989372E+01    0.2115562630E+02    0.2175669479E+02    0.1918000053E-03    0    0
   11    1    9    9    0    0    0.2464182824E+00    0.2526415348E+01    0.1086701393E+02    0.1115954685E+02    0.4958519712E-03    0    0
  -12    1    9    9    0    0    0.2321112901E+00    0.2993455648E+01    0.1051836014E+02    0.1093848896E+02    0.8631674427E-04    0    0
  -16    1   12   12    0    0    0.8057786942E+01    0.1692386866E+01   -0.6255206585E+01    0.1034019947E+02    0.7484976231E-04    0    0
   24    2   12   12    0    0    0.2303701591E+02    0.5267349720E+01   -0.1792011833E+02    0.2969639778E+02    0.1515373707E+01    0    0
  211    1   17   17    0    0    0.9053050041E+01    0.1808871627E+01   -0.7560457706E+01    0.1193355465E+02    0.1395687014E+00    0    0
  111    1   17   17    0    0    0.1625927567E+01    0.5921634436E+00   -0.1085088491E+01    0.2046931982E+01    0.1349640787E+00    0    0
   22    1   17   17    0    0    0.1198713684E+02    0.2773965120E+01   -0.8955128670E+01    0.1521777439E+02    0.8631674427E-04    0    0
   22    1   17   17    0    0    0.3708824515E+00    0.9234557301E-01   -0.3194290698E+00    0.4981128573E+00    0.0000000000E+00    0    0
</event>
<event>
   16 9999    1    0.9119999695E+02    0.7565275169E-02    0.1185000000E+00
   11   -1    0    0    0    0    0.0000000000E+00    0.0000000000E+00    0.8000000000E+02    0.8000000000E+02    0.5109988851E-03    0    0
  -11   -1    0    0    0    0    0.0000000000E+00    0.0000000000E+00   -0.8000000000E+02    0.8000000000E+02    0.5109988851E-03    0    0
  -24    2    1    2    0    0    0.2539822769E+02   -0.6324930191E+01    0.1496960163E+02    0.7502124786E+02    0.6869515228E+02    0    0
   24    2    1    2    0    0   -0.2539822769E+02    0.6324929714E+01   -0.1496746635E+02    0.8497662354E+02    0.7944763184E+02    0    0
   22    1    1    2    0    0    0.1690622469E-06    0.3336042198E-06   -0.2134773880E-02    0.2134773880E-02    0.0000000000E+00    0    0
   15    2    3    3    0    0   -0.3256421566E+01   -0.3228913116E+02    0.1623830223E+02    0.3633225250E+02    0.1777029991E+01    0    0
  -16    1    3    3    0    0    0.2865464973E+02    0.2596420097E+02   -0.1268700600E+01    0.3868899536E+02    0.0000000000E+00    0    0
   16    1    4    4    0    0    0.2742019844E+02   -0.1502351642E+01    0.5055658817E+01    0.2792282295E+02    0.0000000000E+00    0    0
  -15    2    4    4    0    0   -0.5281842422E+02    0.7827281475E+01   -0.2002312469E+02    0.5705379868E+02    0.1777029991E+01    0    0
   16    1    6    6    0    0   -0.2776706696E+01   -0.2827012253E+02    0.1459264183E+02    0.3193517113E+02    0.3229676804E-03    0    0
 -321    1    6    6    0    0   -0.4798431396E+00   -0.4020280838E+01    0.1646299601E+01    0.4398512840E+01    0.4936670363E+00    0    0
  -16    1    9    9    0    0   -0.3285575628E+01    0.5663361549E+00   -0.1043577671E+01    0.3493536711E+01    0.5142913433E-03    0    0
   24    2    9    9    0    0   -0.4953492737E+02    0.7261252880E+01   -0.1898033524E+02    0.5356250381E+02    0.1501320601E+01    0    0
  221    1   13   13    0    0   -0.1260798359E+02    0.1677249432E+01   -0.4885052204E+01    0.1363595772E+02    0.5487999320E+00    0    0
  211    1   13   13    0    0   -0.1024051666E+02    0.1499701381E+01   -0.4267179012E+01    0.1119578362E+02    0.1395678520E+00    0    0
  111    1   13   13    0    0   -0.2668642616E+02    0.4084301949E+01   -0.9828104019E+01    0.2873076248E+02    0.1349640936E+00    0    0
</event>
<event>
   20 9999    1    0.9119999695E+02    0.7565275169E-02    0.1185000000E+00
   11   -1    0    0    0    0    0.0000000000E+00    0.0000000000E+00    0.8000000000E+02    0.8000000000E+02    0.5109988851E-03    0    0
  -11   -1    0    0    0    0    0.0000000000E+00    0.0000000000E+00   -0.8000000000E+02    0.8000000000E+02    0.5109988851E-03    0    0
  -24    2    1    2    0    0    0.5469502926E+01   -0.3583268404E+01    0.3991473198E+01    0.7921305084E+02    0.7884173584E+02    0    0
   24    2    1    2    0    0   -0.5469502926E+01    0.3583268404E+01   -0.3991473198E+01    0.8078694916E+02    0.8042291260E+02    0    0
   15    2    3    3    0    0    0.3398671722E+02    0.1632679558E+02    0.1787406540E+02    0.4176483536E+02    0.1777029991E+01    0    0
  -16    1    3    3    0    0   -0.2851721573E+02   -0.1991006470E+02   -0.1388259220E+02    0.3744821167E+02    0.0000000000E+00    0    0
   16    1    4    4    0    0    0.3571208954E+02   -0.5642482281E+01    0.7685451984E+01    0.3696291351E+02    0.0000000000E+00    0    0
  -15    2    4    4    0    0   -0.4118159103E+02    0.9225750923E+01   -0.1167692471E+02    0.4382403946E+02    0.1777029991E+01    0    0
   16    1    5    5    0    0    0.9394677162E+01    0.4374079227E+01    0.5406593800E+01    0.1168861771E+02    0.1726334885E-03    0    0
  -24    2    5    5    0    0    0.2459337997E+02    0.1195335960E+02    0.1246817493E+02    0.3007785988E+02    0.1226857781E+01    0    0
 -321    1   10   10    0    0    0.6414046764E+01    0.3215271950E+01    0.3060233355E+01    0.7815798283E+01    0.4936670363E+00    0    0
  130    1   10   10    0    0    0.1817933464E+02    0.8738088608E+01    0.9407942772E+01    0.2226206589E+02    0.4977200329E+00    0    0
  -16    1    8    8    0    0   -0.2668514013E+01    0.6087091565E+00   -0.6862407327E+00    0.2821776152E+01    0.2157918607E-04    0    0
   24    2    8    8    0    0   -0.3851469803E+02    0.8617404938E+01   -0.1099114418E+02    0.4100398636E+02    0.1697083950E+01    0    0
  211    1   14   14    0    0   -0.2749632835E+01    0.7560429573E+00   -0.9190605879E+00    0.2999372244E+01    0.1395679861E+00    0    0
  211    1   14   14    0    0   -0.3162514925E+01    0.6268803477E+00   -0.8640909195E+00    0.3340750217E+01    0.1395680010E+00    0    0
 -211    1   14   14    0    0   -0.6136156559E+01    0.1442627788E+01   -0.1438007593E+01    0.6466910839E+01    0.1395680159E+00    0    0
  111    1   14   14    0    0   -0.1585405540E+02    0.3568314314E+01   -0.4916375160E+01    0.1697860146E+02    0.1349640042E+00    0    0
  111    1   14   14    0    0   -0.5986140728E+01    0.1383960009E+01   -0.1642972469E+01    0.6361351967E+01    0.1349639893E+00    0    0
  111    1   14   14    0    0   -0.4626195908E+01    0.8395792842E+00   -0.1210636854E+01    0.4856998920E+01    0.1349640042E+00    0    0
</event>
<event>
   18 9999    1    0.9119999695E+02    0.7565275169E-02    0.1185000000E+00
   11   -1    0    0    0    0    0.0000000000E+00    0.0000000000E+00    0.8000000000E+02    0.8000000000E+02    0.5109988851E-03    0    0
  -11   -1    0    0    0    0    0.0000000000E+00    0.0000000000E+00   -0.8000000000E+02    0.8000000000E+02    0.5109988851E-03    0    0
  -24    2    1    2    0    0   -0.2499044418E+01   -0.1621997118E+01    0.3136072350E+02    0.7665167999E+02    0.6987924194E+02    0    0
   24    2    1    2    0    0    0.2499044418E+01    0.1621997118E+01   -0.3136072350E+02    0.8334832001E+02    0.7716587067E+02    0    0
   15    2    3    3    0    0    0.2027288198E+01    0.3113567162E+02    0.3035503197E+02    0.4356748581E+02    0.1777029991E+01    0    0
  -16    1    3    3    0    0   -0.4526332378E+01   -0.3275766754E+02    0.1005691290E+01    0.3308419418E+02    0.0000000000E+00    0    0
   16    1    4    4    0    0    0.1309719372E+02   -0.2426974297E+02   -0.4452818298E+02    0.5237667465E+02    0.0000000000E+00    0    0
  -15    2    4    4    0    0   -0.1059814930E+02    0.2589174080E+02    0.1316746044E+02    0.3097164536E+02    0.1777029991E+01    0    0
   16    1    5    5    0    0    0.6307110190E+00    0.3736606598E+01    0.3522991896E+01    0.5174118042E+01    0.4105720145E-03    0    0
  -24    2    5    5    0    0    0.1396656871E+01    0.2740029144E+02    0.2683323479E+02    0.3839508438E+02    0.1197180748E+01    0    0
 -211    1   10   10    0    0    0.6739640236E+00    0.1378478146E+02    0.1376799870E+02    0.1949491501E+02    0.1395683885E+00    0    0
  111    1   10   10    0    0    0.1833192706E+00    0.8345278740E+01    0.7622018814E+01    0.1130445385E+02    0.1349643916E+00    0    0
   22    1   10   10    0    0    0.5393738151E+00    0.5270233154E+01    0.5443219662E+01    0.7595716953E+01    0.6103515625E-04    0    0
  -16    1    8    8    0    0   -0.1435835004E+01    0.4018517017E+01    0.1831539154E+01    0.4643774033E+01    0.5160990986E-03    0    0
   24    2    8    8    0    0   -0.9162731171E+01    0.2187424278E+02    0.1133644009E+02    0.2632909012E+02    0.1505997062E+01    0    0
  321    1   15   15    0    0   -0.4983264446E+01    0.1104969406E+02    0.5576807022E+01    0.1335189629E+02    0.4936670959E+00    0    0
  111    1   15   15    0    0   -0.1383419275E+01    0.3806718826E+01    0.2203806877E+01    0.4613018036E+01    0.1349643618E+00    0    0
  130    1   15   15    0    0   -0.2796047688E+01    0.7017828941E+01    0.3555825233E+01    0.8364174843E+01    0.4977200329E+00    0    0
</event>
<event>
   23 9999    1    0.9119999695E+02    0.7565275169E-02    0.1185000000E+00
   11   -1    0    0    0    0    0.0000000000E+00    0.0000000000E+00    0.8000000000E+02    0.8000000000E+02    0.5109988851E-03    0    0
  -11   -1    0    0    0    0    0.0000000000E+00    0.0000000000E+00   -0.8000000000E+02    0.8000000000E+02    0.5109988851E-03    0    0
  -24    2    1    2    0    0    0.2272488022E+02   -0.7382249355E+01    0.2569278145E+02    0.7211180878E+02    0.6300060272E+02    0    0
   24    2    1    2    0    0   -0.2272488785E+02    0.7382270336E+01   -0.2569259071E+02    0.8788800049E+02    0.8058084869E+02    0    0
   22    1    1    2    0    0    0.7010961781E-05   -0.2107546970E-04   -0.1902907970E-03    0.1915826579E-03    0.0000000000E+00    0    0
   15    2    3    3    0    0   -0.8739327431E+01    0.1801290703E+02   -0.5733248234E+01    0.2090140343E+02    0.1777029991E+01    0    0
  -16    1    3    3    0    0    0.3146420860E+02   -0.2539515686E+02    0.3142602921E+02    0.5121040726E+02    0.0000000000E+00    0    0
   16    1    4    4    0    0   -0.9949893951E+01    0.1303366280E+02    0.2796254730E+02    0.3241574860E+02    0.0000000000E+00    0    0
  -15    2    4    4    0    0   -0.1277499390E+02   -0.5651392460E+01   -0.5365513992E+02    0.5547224808E+02    0.1777029991E+01    0    0
   16    1    6    6    0    0   -0.6094730496E+00    0.1005981445E+01   -0.2562728524E+00    0.1203799009E+01    0.4315837214E-04    0    0
  -24    2    6    6    0    0   -0.8130198479E+01    0.1700763512E+02   -0.5477200985E+01    0.1969842720E+02    0.1633558750E+01    0    0
 -211    1   11   11    0    0   -0.6194834709E+00    0.1365330815E+01   -0.3691229820E+00    0.1550361037E+01    0.1395679861E+00    0    0
 -211    1   11   11    0    0   -0.6061813235E+00    0.1600336552E+01   -0.3415813446E+00    0.1750625610E+01    0.1395680308E+00    0    0
 -211    1   11   11    0    0   -0.1566916347E+01    0.2714215040E+01   -0.9744848013E+00    0.3285010099E+01    0.1395679414E+00    0    0
  211    1   11   11    0    0   -0.2694504261E+01    0.5352494717E+01   -0.2043876410E+01    0.6332966805E+01    0.1395679116E+00    0    0
  211    1   11   11    0    0   -0.1144343257E+01    0.2724381447E+01   -0.6471475363E+00    0.3028209686E+01    0.1395679861E+00    0    0
  111    1   11   11    0    0   -0.1177527785E+01    0.2516708374E+01   -0.7920702100E+00    0.2892400980E+01    0.1349640042E+00    0    0
   22    1   11   11    0    0   -0.3212454915E+00    0.7341728210E+00   -0.3089189529E+00    0.8588593006E+00    0.0000000000E+00    0    0
  -16    1    9    9    0    0   -0.3701074123E+01   -0.1483909845E+01   -0.1586449432E+02    0.1635793686E+02    0.3955530119E-03    0    0
   24    2    9    9    0    0   -0.9074422836E+01   -0.4167705059E+01   -0.3779275894E+02    0.3911649704E+02    0.1446674943E+01    0    0
  211    1   20   20    0    0   -0.3553663492E+01   -0.1145158291E+01   -0.1310525322E+02    0.1362743759E+02    0.1395681798E+00    0    0
  111    1   20   20    0    0   -0.4019636512E+00   -0.2425155044E+00   -0.1352427840E+01    0.1437937737E+01    0.1349642575E+00    0    0
   22    1   20   20    0    0   -0.5118795395E+01   -0.2780031443E+01   -0.2333507538E+02    0.2405112076E+02    0.2283726499E-03    0    0
</event>
<event>
   20 9999    1    0.9119999695E+02    0.7565275169E-02    0.1185000000E+00
   11   -1    0    0    0    0    0.0000000000E+00    0.0000000000E+00    0.8000000000E+02    0.8000000000E+02    0.5109988851E-03    0    0
  -11   -1    0    0    0    0    0.0000000000E+00    0.0000000000E+00   -0.8000000000E+02    0.8000000000E+02    0.5109988851E-03    0    0
  -24    2    1    2    0    0    0.6904693604E+01    0.2143284798E+02    0.1643878365E+02    0.8500724030E+02    0.8030538940E+02    0    0
   24    2    1    2    0    0   -0.6904314518E+01   -0.2143283463E+02   -0.1643753433E+02    0.7499144745E+02    0.6961672974E+02    0    0
   22    1    1    2    0    0   -0.3788761969E-03   -0.1317840361E-04   -0.1249792986E-02    0.1306025777E-02    0.0000000000E+00    0    0
   15    2    3    3    0    0    0.4004967880E+02    0.8288844109E+01    0.2548487854E+02    0.4822155762E+02    0.1777029991E+01    0    0
  -16    1    3    3    0    0   -0.3314498520E+02    0.1314400387E+02   -0.9046094894E+01    0.3678568649E+02    0.0000000000E+00    0    0
   16    1    4    4    0    0   -0.2218857384E+02   -0.3994580460E+02    0.2586790919E+00    0.4569537354E+02    0.0000000000E+00    0    0
  -15    2    4    4    0    0    0.1528425980E+02    0.1851297188E+02   -0.1669621277E+02    0.2929607582E+02    0.1777029991E+01    0    0
   16    1    6    6    0    0    0.3869172573E+01    0.5034509897E+00    0.2353961468E+01    0.4556873322E+01    0.4162042751E-03    0    0
  -24    2    6    6    0    0    0.3618208313E+02    0.7785719395E+01    0.2313191795E+02    0.4366658020E+02    0.1387126684E+01    0    0
 -211    1   11   11    0    0    0.7594841957E+01    0.1656821489E+01    0.4700995922E+01    0.9085456848E+01    0.1395691931E+00    0    0
 -211    1   11   11    0    0    0.1082790756E+02    0.2346235514E+01    0.6570946693E+01    0.1288197231E+02    0.1395679861E+00    0    0
  211    1   11   11    0    0    0.4128046989E+01    0.9849708676E+00    0.2487748146E+01    0.4921311378E+01    0.1395680755E+00    0    0
  111    1   11   11    0    0    0.1363127995E+02    0.2797689915E+01    0.9372223854E+01    0.1677783203E+02    0.1349645108E+00    0    0
  -16    1    9    9    0    0    0.2830540180E+01    0.3653271675E+01   -0.3571565628E+01    0.5840755939E+01    0.4401307669E-03    0    0
   24    2    9    9    0    0    0.1245432186E+02    0.1486042976E+02   -0.1312530518E+02    0.2345647430E+02    0.1410693884E+01    0    0
  221    1   17   17    0    0    0.5602873325E+01    0.6429521084E+01   -0.5471232891E+01    0.1014724064E+02    0.5487998724E+00    0    0
  211    1   17   17    0    0    0.1735469580E+01    0.2599525928E+01   -0.2270530224E+01    0.3865769863E+01    0.1395679116E+00    0    0
  111    1   17   17    0    0    0.5115979671E+01    0.5831383705E+01   -0.5383543015E+01    0.9443465233E+01    0.1349639595E+00    0    0
</event>
<event>
   23 9999    1    0.9119999695E+02    0.7565275169E-02    0.1185000000E+00
   11   -1    0    0    0    0    0.0000000000E+00    0.0000000000E+00    0.8000000000E+02    0.8000000000E+02    0.5109988851E-03    0    0
  -11   -1    0    0    0    0    0.0000000000E+00    0.0000000000E+00   -0.8000000000E+02    0.8000000000E+02    0.5109988851E-03    0    0
  -24    2    1    2    0    0   -0.1414076233E+02    0.1081193829E+02    0.2718364239E+01    0.7849649811E+02    0.7640321350E+02    0    0
   24    2    1    2    0    0    0.1414076328E+02   -0.1081193924E+02   -0.2705024481E+01    0.8149016571E+02    0.7947622681E+02    0    0
   22    1    1    2    0    0   -0.1511982532E-05    0.1508524406E-05   -0.1333987992E-01    0.1333987992E-01    0.0000000000E+00    0    0
   15    2    3    3    0    0    0.1969941902E+02    0.3262907028E+02    0.2406809568E+01    0.3823184586E+02    0.1777029991E+01    0    0
  -16    1    3    3    0    0   -0.3384017944E+02   -0.2181713295E+02    0.3115546405E+00    0.4026465225E+02    0.0000000000E+00    0    0
   16    1    4    4    0    0    0.4222162247E+02    0.4045154572E+01   -0.1813303757E+02    0.4612847137E+02    0.0000000000E+00    0    0
  -15    2    4    4    0    0   -0.2808085823E+02   -0.1485709381E+02    0.1542801380E+02    0.3536169434E+02    0.1777029991E+01    0    0
   16    1    6    6    0    0    0.2095566034E+01    0.3581039906E+01    0.3408034742E+00    0.4163098812E+01    0.2157918607E-04    0    0
  -24    2    6    6    0    0    0.1760462952E+02    0.2904931641E+02    0.2066100836E+01    0.3407025146E+02    0.1651531458E+01    0    0
 -211    1   11   11    0    0    0.4070913315E+01    0.6337454319E+01    0.3216376305E+00    0.7540463924E+01    0.1395680010E+00    0    0
 -211    1   11   11    0    0    0.5750977516E+01    0.9914735794E+01    0.1102258205E+01    0.1151564884E+02    0.1395680159E+00    0    0
 -211    1   11   11    0    0    0.5632816553E+00    0.1032407403E+01    0.1703481972E+00    0.1196515322E+01    0.1395680010E+00    0    0
  211    1   11   11    0    0    0.5389036179E+01    0.8741125107E+01    0.4667325616E+00    0.1028038406E+02    0.1395680308E+00    0    0
  211    1   11   11    0    0    0.1830420613E+01    0.3023593664E+01    0.5124272313E-02    0.3537239552E+01    0.1395680457E+00    0    0
  -16    1    9    9    0    0   -0.2370107412E+01   -0.1434151530E+01    0.1411199331E+01    0.3108968258E+01    0.6103515625E-04    0    0
   24    2    9    9    0    0   -0.2571185684E+02   -0.1342352676E+02    0.1401742172E+02    0.3225411606E+02    0.1596639991E+01    0    0
  211    1   18   18    0    0   -0.8695150375E+01   -0.4755039215E+01    0.4635069847E+01    0.1094163513E+02    0.1395679116E+00    0    0
  211    1   18   18    0    0   -0.4152968884E+01   -0.2564904451E+01    0.2533679485E+01    0.5501354218E+01    0.1395679712E+00    0    0
  211    1   18   18    0    0   -0.4219908714E+01   -0.2153929710E+01    0.2304553509E+01    0.5270435333E+01    0.1395679861E+00    0    0
 -211    1   18   18    0    0   -0.7088200569E+01   -0.3273243427E+01    0.3710795403E+01    0.8645587921E+01    0.1395680755E+00    0    0
 -211    1   18   18    0    0   -0.1555627227E+01   -0.6764100790E+00    0.8333228827E+00    0.1895102382E+01    0.1395679712E+00    0    0
</event>
<event>
   18 9999    1    0.9119999695E+02    0.7565275169E-02    0.1185000000E+00
   11   -1    0    0    0    0    0.0000000000E+00    0.0000000000E+00    0.8000000000E+02    0.8000000000E+02    0.5109988851E-03    0    0
  -11   -1    0    0    0    0    0.0000000000E+00    0.0000000000E+00   -0.8000000000E+02    0.8000000000E+02    0.5109988851E-03    0    0
  -24    2    1    2    0    0   -0.2244458008E+02   -0.4032773018E+01    0.2230006027E+02    0.8655151367E+02    0.8046023560E+02    0    0
   24    2    1    2    0    0    0.2244458008E+02    0.4032773018E+01   -0.2230006027E+02    0.7344848633E+02    0.6616165924E+02    0    0
   15    2    3    3    0    0   -0.3280812836E+02   -0.3362105787E+00    0.4824407959E+02    0.5837067032E+02    0.1777029991E+01    0    0
  -16    1    3    3    0    0    0.1036354637E+02   -0.3696562529E+01   -0.2594401932E+02    0.2818083954E+02    0.0000000000E+00    0    0
   16    1    4    4    0    0    0.2214660883E+01    0.3036203384E+02   -0.2594423485E+02    0.3999826431E+02    0.0000000000E+00    0    0
  -15    2    4    4    0    0    0.2022991943E+02   -0.2632926178E+02    0.3644173861E+01    0.3345022202E+02    0.1777029991E+01    0    0
   16    1    5    5    0    0   -0.8231173515E+01    0.4521606266E+00    0.1198927212E+02    0.1454989052E+02    0.8631674427E-04    0    0
 -213    2    5    5    0    0   -0.2457824326E+02   -0.7883844376E+00    0.3625670242E+02    0.4382307434E+02    0.1096257806E+01    0    0
 -211    1   10   10    0    0   -0.1727047205E+01   -0.1000763997E+00    0.3008094072E+01    0.3472868681E+01    0.1395677477E+00    0    0
  111    1   10   10    0    0   -0.2285120010E+02   -0.6883080602E+00    0.3324861526E+02    0.4035021210E+02    0.1349634230E+00    0    0
  -16    1    8    8    0    0    0.1255030990E+01   -0.2047271729E+01    0.3586876094E+00    0.2427978754E+01    0.4766998172E-03    0    0
   24    2    8    8    0    0    0.1897568512E+02   -0.2428302574E+02    0.3285629749E+01    0.3102356148E+02    0.1387104392E+01    0    0
  211    1   14   14    0    0    0.1580670953E+01   -0.2001042366E+01    0.4424538016E+00    0.2591898203E+01    0.1395679116E+00    0    0
  310    1   14   14    0    0    0.5777291298E+01   -0.7636046410E+01    0.1220056772E+01    0.9665534973E+01    0.4977200329E+00    0    0
  111    1   14   14    0    0    0.1158047867E+02   -0.1460811329E+02    0.1609404922E+01    0.1871130371E+02    0.1349640042E+00    0    0
   22    1   14   14    0    0    0.3723529354E-01   -0.3781320527E-01    0.1371370628E-01    0.5481214449E-01    0.0000000000E+00    0    0
</event>
<event>
   19 9999    1    0.9119999695E+02    0.7565275169E-02    0.1185000000E+00
   11   -1    0    0    0    0    0.0000000000E+00    0.0000000000E+00    0.8000000000E+02    0.8000000000E+02    0.5109988851E-03    0    0
  -11   -1    0    0    0    0    0.0000000000E+00    0.0000000000E+00   -0.8000000000E+02    0.8000000000E+02    0.5109988851E-03    0    0
  -24    2    1    2    0    0    0.1712442207E+02   -0.1433287144E+02    0.5999063969E+01    0.7872155762E+02    0.7524903870E+02    0    0
   24    2    1    2    0    0   -0.1712442207E+02    0.1433287144E+02   -0.5999063969E+01    0.8127844238E+02    0.7791995239E+02    0    0
   15    2    3    3    0    0    0.6637022495E+01    0.2601774216E+02   -0.1627984619E+02    0.3145098114E+02    0.1777029991E+01    0    0
  -16    1    3    3    0    0    0.1048739910E+02   -0.4035061264E+02    0.2227891159E+02    0.4727057648E+02    0.0000000000E+00    0    0
   16    1    4    4    0    0    0.2210654640E+02    0.2092060089E+02   -0.2283053589E+02    0.3804739761E+02    0.0000000000E+00    0    0
  -15    2    4    4    0    0   -0.3923096848E+02   -0.6587728977E+01    0.1683147240E+02    0.4323104858E+02    0.1777029991E+01    0    0
   16    1    5    5    0    0    0.2543133020E+01    0.1105504990E+02   -0.7629720688E+01    0.1367092896E+02    0.1726334885E-03    0    0
 -213    2    5    5    0    0    0.4094151020E+01    0.1496371555E+02   -0.8650767326E+01    0.1778129005E+02    0.8146457672E+00    0    0
 -211    1   10   10    0    0    0.1544339299E+01    0.5062568188E+01   -0.3327621460E+01    0.6253569126E+01    0.1395678818E+00    0    0
  111    1   10   10    0    0    0.2549811602E+01    0.9901146889E+01   -0.5323145390E+01    0.1152772045E+02    0.1349640638E+00    0    0
  -16    1    8    8    0    0   -0.8913967013E+00   -0.1656115204E+00    0.2916555405E+00    0.9524065852E+00    0.3021086159E-03    0    0
   24    2    8    8    0    0   -0.3834111786E+02   -0.6422376633E+01    0.1654047966E+02    0.4228034210E+02    0.1658826709E+01    0    0
  211    1   14   14    0    0   -0.1553553391E+02   -0.2414108276E+01    0.6501415730E+01    0.1701377678E+02    0.1395677030E+00    0    0
  211    1   14   14    0    0   -0.6187113285E+01   -0.1064086795E+01    0.2557083130E+01    0.6780177116E+01    0.1395680457E+00    0    0
 -211    1   14   14    0    0   -0.5121738911E+01   -0.7860881090E+00    0.2406130791E+01    0.5714813232E+01    0.1395680457E+00    0    0
  111    1   14   14    0    0   -0.9580898285E+01   -0.2030600071E+01    0.4219370842E+01    0.1066481400E+02    0.1349639595E+00    0    0
  111    1   14   14    0    0   -0.1915835381E+01   -0.1274940372E+00    0.8564813137E+00    0.2106764317E+01    0.1349639446E+00    0    0
</event>
<event>
   16 9999    1    0.9119999695E+02    0.7565275169E-02    0.1185000000E+00
   11   -1    0    0    0    0    0.0000000000E+00    0.0000000000E+00    0.8000000000E+02    0.8000000000E+02    0.5109988851E-03    0    0
  -11   -1    0    0    0    0    0.0000000000E+00    0.0000000000E+00   -0.8000000000E+02    0.8000000000E+02    0.5109988851E-03    0    0
  -24    2    1    2    0    0   -0.5553929329E+01    0.1283194304E+01   -0.5583661199E+00    0.7935400391E+02    0.7914703369E+02    0    0
   24    2    1    2    0    0    0.5553929329E+01   -0.1283194304E+01    0.5583661199E+00    0.8064599609E+02    0.8044235992E+02    0    0
   15    2    3    3    0    0    0.2647649956E+02    0.2160244751E+02   -0.1676660156E+02    0.3810442734E+02    0.1777029991E+01    0    0
  -16    1    3    3    0    0   -0.3203042984E+02   -0.2031925201E+02    0.1620823479E+02    0.4124957275E+02    0.0000000000E+00    0    0
   16    1    4    4    0    0    0.1497615242E+02   -0.1508420181E+02    0.3578179169E+02    0.4161916733E+02    0.0000000000E+00    0    0
  -15    2    4    4    0    0   -0.9422222137E+01    0.1380100727E+02   -0.3522342682E+02    0.3902683258E+02    0.1777029991E+01    0    0
   16    1    5    5    0    0    0.5417124271E+01    0.3866549969E+01   -0.3002631426E+01    0.7301454544E+01    0.8631674427E-04    0    0
   11    1    5    5    0    0    0.1914389610E+02    0.1642402840E+02   -0.1235280418E+02    0.2808610344E+02    0.5645411438E-03    0    0
  -12    1    5    5    0    0    0.1916520596E+01    0.1312719345E+01   -0.1411825061E+01    0.2718369484E+01    0.1726334885E-03    0    0
  -16    1    8    8    0    0   -0.8735984564E+00    0.1682019114E+01   -0.3681036234E+01    0.4140336990E+01    0.1954078471E-03    0    0
   24    2    8    8    0    0   -0.8548995018E+01    0.1211953163E+02   -0.3154377747E+02    0.3488803101E+02    0.1482086182E+01    0    0
  221    1   13   13    0    0   -0.3463133574E+01    0.4850147247E+01   -0.1236127853E+02    0.1373388577E+02    0.5487999916E+00    0    0
  211    1   13   13    0    0   -0.4742432594E+01    0.6347274303E+01   -0.1699886894E+02    0.1875525475E+02    0.1395681500E+00    0    0
  111    1   13   13    0    0   -0.3434284627E+00    0.9221099019E+00   -0.2183628321E+01    0.2398890972E+01    0.1349639595E+00    0    0
</event>
<event>
   16 9999    1    0.9119999695E+02    0.7565275169E-02    0.1185000000E+00
   11   -1    0    0    0    0    0.0000000000E+00    0.0000000000E+00    0.8000000000E+02    0.8000000000E+02    0.5109988851E-03    0    0
  -11   -1    0    0    0    0    0.0000000000E+00    0.0000000000E+00   -0.8000000000E+02    0.8000000000E+02    0.5109988851E-03    0    0
  -24    2    1    2    0    0   -0.2417221069E+02   -0.2029427910E+02    0.1484743977E+02    0.7628931427E+02    0.6784880066E+02    0    0
   24    2    1    2    0    0    0.2417221069E+02    0.2029427910E+02   -0.1484743977E+02    0.8371068573E+02    0.7609782410E+02    0    0
   15    2    3    3    0    0   -0.1157832527E+02   -0.1541108012E+01    0.4045330811E+02    0.4214333344E+02    0.1777029991E+01    0    0
  -16    1    3    3    0    0   -0.1259388542E+02   -0.1875317192E+02   -0.2560586739E+02    0.3414597702E+02    0.0000000000E+00    0    0
   16    1    4    4    0    0    0.5065833282E+02    0.2206364822E+02   -0.1440919781E+02    0.5710250854E+02    0.0000000000E+00    0    0
  -15    2    4    4    0    0   -0.2648612213E+02   -0.1769369721E+01   -0.4382424653E+00    0.2660817909E+02    0.1777029991E+01    0    0
   16    1    5    5    0    0   -0.8680597305E+01   -0.1025031924E+01    0.3267866516E+02    0.3382748032E+02    0.3229676804E-03    0    0
   11    1    5    5    0    0   -0.2064716101E+01   -0.4627921581E+00    0.5517984390E+01    0.5909770012E+01    0.4958519712E-03    0    0
  -12    1    5    5    0    0   -0.8334671259E+00   -0.5334450305E-01    0.2258251190E+01    0.2407739878E+01    0.4481254655E-04    0    0
  -16    1    8    8    0    0   -0.6846107244E+00    0.7755333930E-01    0.3467864916E-01    0.6898619533E+00    0.7124400581E-03    0    0
   24    2    8    8    0    0   -0.2580255318E+02   -0.1846992612E+01   -0.4729383588E+00    0.2591936302E+02    0.1551336408E+01    0    0
  211    1   13   13    0    0   -0.8332141876E+01   -0.2503039874E-01   -0.6424680352E-01    0.8333596230E+01    0.1395680159E+00    0    0
  310    1   13   13    0    0   -0.1398300838E+02   -0.1303543091E+01   -0.2885797322E+00    0.1405541801E+02    0.4977200329E+00    0    0
  111    1   13   13    0    0   -0.3487401962E+01   -0.5184191465E+00   -0.1201118082E+00    0.3530350208E+01    0.1349639446E+00    0    0
</event>
<event>
   20 9999    1    0.9119999695E+02    0.7565275169E-02    0.1185000000E+00
   11   -1    0    0    0    0    0.0000000000E+00    0.0000000000E+00    0.8000000000E+02    0.8000000000E+02    0.5109988851E-03    0    0
  -11   -1    0    0    0    0    0.0000000000E+00    0.0000000000E+00   -0.8000000000E+02    0.8000000000E+02    0.5109988851E-03    0    0
  -24    2    1    2    0    0    0.2124159241E+02   -0.7774925232E+01   -0.4443140984E+01    0.8358364868E+02    0.8034195709E+02    0    0
   24    2    1    2    0    0   -0.2124159431E+02    0.7774927139E+01    0.4443035603E+01    0.7641624451E+02    0.7285634613E+02    0    0
   22    1    1    2    0    0    0.1750151000E-05   -0.1719781835E-05    0.1054928725E-03    0.1055214088E-03    0.0000000000E+00    0    0
   15    2    3    3    0    0   -0.1855558586E+02   -0.3013997841E+02    0.7868806839E+01    0.3630157089E+02    0.1777029991E+01    0    0
  -16    1    3    3    0    0    0.3979717636E+02    0.2236505318E+02   -0.1231194782E+02    0.4728207779E+02    0.0000000000E+00    0    0
   16    1    4    4    0    0   -0.3690535355E+02    0.8148117065E+01    0.2871957779E+02    0.4746799850E+02    0.0000000000E+00    0    0
  -15    2    4    4    0    0    0.1566375732E+02   -0.3731899559E+00   -0.2427654266E+02    0.2894824600E+02    0.1777029991E+01    0    0
   16    1    6    6    0    0   -0.1362987399E+01   -0.2554104567E+01    0.5527883172E+00    0.2947330952E+01    0.3737624866E-04    0    0
  -24    2    6    6    0    0   -0.1719332886E+02   -0.2758705902E+02    0.7316328049E+01    0.3335566711E+02    0.1554191709E+01    0    0
 -211    1   11   11    0    0   -0.8652330637E+00   -0.1395631671E+01    0.4173505008E+00    0.1700022578E+01    0.1395680010E+00    0    0
 -211    1   11   11    0    0   -0.4320796013E+01   -0.6929516315E+01    0.1676643848E+01    0.8337750435E+01    0.1395680010E+00    0    0
 -211    1   11   11    0    0   -0.2823367119E+01   -0.4551468849E+01    0.1157498121E+01    0.5481473446E+01    0.1395680010E+00    0    0
  211    1   11   11    0    0   -0.1006854534E+01   -0.1486355066E+01    0.6100140214E+00    0.1901211143E+01    0.1395679563E+00    0    0
  211    1   11   11    0    0   -0.5322131634E+01   -0.8974326134E+01    0.2329665184E+01    0.1069160652E+02    0.1395679861E+00    0    0
  111    1   11   11    0    0   -0.2854945898E+01   -0.4249761105E+01    0.1125156522E+01    0.5243603706E+01    0.1349640042E+00    0    0
  -16    1    9    9    0    0    0.1627547145E+01    0.1126525328E+00   -0.2447504520E+01    0.2941407681E+01    0.1078959303E-04    0    0
  -11    1    9    9    0    0    0.1161699867E+02   -0.9915105104E+00   -0.1771524239E+02    0.2120772362E+02    0.4139605735E-03    0    0
   12    1    9    9    0    0    0.2419828176E+01    0.5056533813E+00   -0.4114751816E+01    0.4800253868E+01    0.2114319796E-03    0    0
</event>
<event>
   20 9999    1    0.9119999695E+02    0.7565275169E-02    0.1185000000E+00
   11   -1    0    0    0    0    0.0000000000E+00    0.0000000000E+00    0.8000000000E+02    0.8000000000E+02    0.5109988851E-03    0    0
  -11   -1    0    0    0    0    0.0000000000E+00    0.0000000000E+00   -0.8000000000E+02    0.8000000000E+02    0.5109988851E-03    0    0
  -24    2    1    2    0    0   -0.7777372003E+00   -0.1955623507E+01   -0.2159690857E+01    0.8019278717E+02    0.8013606262E+02    0    0
   24    2    1    2    0    0    0.7777299881E+00    0.1955618024E+01    0.2482448816E+01    0.7948445892E+02    0.7941780090E+02    0    0
   22    1    1    2    0    0    0.7205377187E-05    0.5566141226E-05   -0.3227578700E+00    0.3227578700E+00    0.0000000000E+00    0    0
   15    2    3    3    0    0    0.3493843842E+02    0.1496760559E+02    0.9047481537E+01    0.3911186981E+02    0.1777029991E+01    0    0
  -16    1    3    3    0    0   -0.3571617508E+02   -0.1692322922E+02   -0.1120717239E+02    0.4108091354E+02    0.0000000000E+00    0    0
   16    1    4    4    0    0   -0.1014451861E+01   -0.3788362503E+02    0.9215317726E+01    0.3900154114E+02    0.0000000000E+00    0    0
  -15    2    4    4    0    0    0.1792181849E+01    0.3983924103E+02   -0.6732868671E+01    0.4048291779E+02    0.1777029991E+01    0    0
   16    1    6    6    0    0    0.3096864700E+01    0.1619677901E+01    0.8034299016E+00    0.3586004257E+01    0.2765589743E-03    0    0
  -24    2    6    6    0    0    0.3184294701E+02    0.1334851646E+02    0.8244407654E+01    0.3552740479E+02    0.1438760042E+01    0    0
  130    1   11   11    0    0    0.9255672455E+01    0.3713627815E+01    0.2328335524E+01    0.1025316429E+02    0.4977200329E+00    0    0
 -211    1   11   11    0    0    0.1998274684E+01    0.9364633560E+00    0.3985953331E+00    0.2246869564E+01    0.1395680457E+00    0    0
  310    1   11   11    0    0    0.2058899879E+02    0.8698425293E+01    0.5517476082E+01    0.2302736855E+02    0.4977200925E+00    0    0
  -16    1    9    9    0    0    0.1891328543E+00    0.5159330368E+01   -0.1371718049E+01    0.5341916084E+01    0.6103515625E-03    0    0
   24    2    9    9    0    0    0.1603119493E+01    0.3468148041E+02   -0.5361415386E+01    0.3514259338E+02    0.9391595721E+00    0    0
  211    1   16   16    0    0    0.5272125602E+00    0.1453841496E+02   -0.2436639309E+01    0.1475127602E+02    0.1395678818E+00    0    0
  211    1   16   16    0    0    0.3396130502E+00    0.8147268295E+01   -0.1365533471E+01    0.8269066811E+01    0.1395680904E+00    0    0
 -211    1   16   16    0    0    0.3999726176E+00    0.6624088764E+01   -0.8523868918E+00    0.6692127705E+01    0.1395680606E+00    0    0
  111    1   16   16    0    0    0.3363212347E+00    0.5371706486E+01   -0.7068558335E+00    0.5430119991E+01    0.1349640638E+00    0    0
</event>
<event>
   28 9999    1    0.9119999695E+02    0.7565275169E-02    0.1185000000E+00
   11   -1    0    0    0    0    0.0000000000E+00    0.0000000000E+00    0.8000000000E+02    0.8000000000E+02    0.5109988851E-03    0    0
  -11   -1    0    0    0    0    0.0000000000E+00    0.0000000000E+00   -0.8000000000E+02    0.8000000000E+02    0.5109988851E-03    0    0
  -24    2    1    2    0    0    0.1753356814E+01    0.1372231007E+02    0.1538526535E+02    0.7744609070E+02    0.7463119507E+02    0    0
   24    2    1    2    0    0   -0.1753292799E+01   -0.1372230530E+02   -0.1574680996E+02    0.8218958282E+02    0.7947193909E+02    0    0
   22    1    1    2    0    0    0.1962250963E-05   -0.1687460212E-05    0.3508478403E+00    0.3508478403E+00    0.0000000000E+00    0    0
   22    1    1    2    0    0    0.6190401564E-05    0.2665389911E-04    0.1200274564E-01    0.1200277638E-01    0.0000000000E+00    0    0
   22    1    1    2    0    0   -0.7213599019E-04   -0.2886526090E-04   -0.1390451915E-02    0.1392620965E-02    0.0000000000E+00    0    0
   22    1    1    2    0    0   -0.1238430691E-07    0.5630831801E-08    0.8443545812E-04    0.8443545812E-04    0.0000000000E+00    0    0
   15    2    3    3    0    0   -0.3453416061E+02    0.1366303730E+02   -0.1946058869E+01    0.3723213577E+02    0.1777029991E+01    0    0
  -16    1    3    3    0    0    0.3628751755E+02    0.5927270278E-01    0.1733132362E+02    0.4021395874E+02    0.0000000000E+00    0    0
   16    1    4    4    0    0   -0.2252545738E+02    0.8964413643E+01    0.2250013542E+02    0.3307586670E+02    0.0000000000E+00    0    0
  -15    2    4    4    0    0    0.2077216530E+02   -0.2268671989E+02   -0.3824694443E+02    0.4911371231E+02    0.1777029991E+01    0    0
   16    1    9    9    0    0   -0.1816910386E+01    0.8401369452E+00   -0.2752206847E-01    0.2001936913E+01    0.2157918607E-04    0    0
  -24    2    9    9    0    0   -0.3271860886E+02    0.1282343674E+02   -0.1918613315E+01    0.3523166275E+02    0.1625121236E+01    0    0
 -211    1   14   14    0    0   -0.6766475201E+01    0.2465556860E+01   -0.9371773899E-01    0.7203639030E+01    0.1395679265E+00    0    0
 -211    1   14   14    0    0   -0.9526133537E+01    0.3789128780E+01   -0.6421280503E+00    0.1027309704E+02    0.1395679265E+00    0    0
 -211    1   14   14    0    0   -0.3541499138E+01    0.1480897069E+01   -0.2991008759E+00    0.3852818966E+01    0.1395679861E+00    0    0
  211    1   14   14    0    0   -0.6166863441E+01    0.2311555624E+01   -0.3333539665E+00    0.6595763683E+01    0.1395679861E+00    0    0
  211    1   14   14    0    0   -0.3660558939E+01    0.1290434003E+01   -0.2937806547E+00    0.3894958019E+01    0.1395680010E+00    0    0
  111    1   14   14    0    0   -0.3057079554E+01    0.1485864758E+01   -0.2565320432E+00    0.3411385775E+01    0.1349639148E+00    0    0
  -16    1   12   12    0    0    0.2783650160E+01   -0.3012202501E+01   -0.5475039959E+01    0.6840916157E+01    0.6103515625E-04    0    0
   24    2   12   12    0    0    0.1798933411E+02   -0.1967541122E+02   -0.3277341461E+02    0.4227473068E+02    0.1522643685E+01    0    0
  211    1   22   22    0    0    0.3382704258E+01   -0.3730815411E+01   -0.6200242996E+01    0.7989002705E+01    0.1395680308E+00    0    0
  211    1   22   22    0    0    0.2337561131E+01   -0.2183948040E+01   -0.3924849749E+01    0.5065347672E+01    0.1395680457E+00    0    0
  211    1   22   22    0    0    0.1727228880E+01   -0.1841579437E+01   -0.3165510654E+01    0.4051502228E+01    0.1395680010E+00    0    0
 -211    1   22   22    0    0    0.2384940386E+01   -0.2979568958E+01   -0.5011190891E+01    0.6300578117E+01    0.1395680904E+00    0    0
 -211    1   22   22    0    0    0.6316939831E+01   -0.6903627396E+01   -0.1129756832E+02    0.1467032146E+02    0.1395680755E+00    0    0
  111    1   22   22    0    0    0.1839959264E+01   -0.2035872221E+01   -0.3174050331E+01    0.4197979927E+01    0.1349640191E+00    0    0
</event>
<event>
   21 9999    1    0.9119999695E+02    0.7565275169E-02    0.1185000000E+00
   11   -1    0    0    0    0    0.0000000000E+00    0.0000000000E+00    0.8000000000E+02    0.8000000000E+02    0.5109988851E-03    0    0
  -11   -1    0    0    0    0    0.0000000000E+00    0.0000000000E+00   -0.8000000000E+02    0.8000000000E+02    0.5109988851E-03    0    0
  -24    2    1    2    0    0    0.6856975555E+01    0.2445791483E+01    0.1620603752E+02    0.7770014954E+02    0.7564176941E+02    0    0
   24    2    1    2    0    0   -0.6856975555E+01   -0.2445791483E+01   -0.1620603752E+02    0.8229985046E+02    0.8035937500E+02    0    0
   15    2    3    3    0    0   -0.5899548531E+01   -0.1966868782E+02   -0.2301931572E+02    0.3089836121E+02    0.1777029991E+01    0    0
  -16    1    3    3    0    0    0.1275652409E+02    0.2211447906E+02    0.3922535324E+02    0.4680178833E+02    0.0000000000E+00    0    0
   16    1    4    4    0    0    0.2373756409E+02   -0.2379770851E+02    0.1179129601E+02    0.3562074661E+02    0.0000000000E+00    0    0
  -15    2    4    4    0    0   -0.3059453964E+02    0.2135191727E+02   -0.2799733353E+02    0.4667910385E+02    0.1777029991E+01    0    0
   16    1    5    5    0    0   -0.2305238008E+01   -0.7300517082E+01   -0.8413239479E+01    0.1137516022E+02    0.2943008731E-03    0    0
  -24    2    5    5    0    0   -0.3594542742E+01   -0.1236894512E+02   -0.1460698318E+02    0.1952441788E+02    0.1388298273E+01    0    0
 -321    1   10   10    0    0   -0.1110460281E+01   -0.3366526127E+01   -0.3993089676E+01    0.5362377644E+01    0.4936669469E+00    0    0
 -211    1   10   10    0    0   -0.1357274204E+00   -0.9639166594E+00   -0.1236129761E+01    0.1579573750E+01    0.1395681500E+00    0    0
  321    1   10   10    0    0   -0.2348354816E+01   -0.8038501740E+01   -0.9377761841E+01    0.1258246422E+02    0.4936670065E+00    0    0
  -16    1    8    8    0    0   -0.1407514513E+00    0.7809218019E-01   -0.1278739572E+00    0.2055750638E+00    0.3303624680E-05    0    0
   24    2    8    8    0    0   -0.3045499039E+02    0.2127466393E+02   -0.2787055969E+02    0.4647536469E+02    0.1753142238E+01    0    0
  211    1   15   15    0    0   -0.3999792814E+01    0.2616759062E+01   -0.3668102503E+01    0.6026626587E+01    0.1395679414E+00    0    0
  211    1   15   15    0    0   -0.3285973549E+01    0.2176487684E+01   -0.2877141953E+01    0.4881817818E+01    0.1395679712E+00    0    0
 -211    1   15   15    0    0   -0.3038145065E+01    0.1875111938E+01   -0.2854440451E+01    0.4573147774E+01    0.1395679265E+00    0    0
  111    1   15   15    0    0   -0.7241305351E+01    0.5461575985E+01   -0.6787587643E+01    0.1132938099E+02    0.1349638700E+00    0    0
  111    1   15   15    0    0   -0.8215273857E+01    0.5594582081E+01   -0.7086913109E+01    0.1220789242E+02    0.1349639297E+00    0    0
  111    1   15   15    0    0   -0.4674499035E+01    0.3550146580E+01   -0.4596373558E+01    0.7456496716E+01    0.1349638999E+00    0    0
</event>
<event>
   19 9999    1    0.9119999695E+02    0.7565275169E-02    0.1185000000E+00
   11   -1    0    0    0    0    0.0000000000E+00    0.0000000000E+00    0.8000000000E+02    0.8000000000E+02    0.5109988851E-03    0    0
  -11   -1    0    0    0    0    0.0000000000E+00    0.0000000000E+00   -0.8000000000E+02    0.8000000000E+02    0.5109988851E-03    0    0
  -24    2    1    2    0    0   -0.8299039841E+01   -0.8843851089E+01   -0.5478846550E+01    0.8231223297E+02    0.8122929382E+02    0    0
   24    2    1    2    0    0    0.8289026260E+01    0.8842807770E+01    0.5542171478E+01    0.7762020874E+02    0.7646749878E+02    0    0
   22    1    1    2    0    0    0.9243960085E-04   -0.3267588181E-04   -0.5367881060E-01    0.5367890000E-01    0.0000000000E+00    0    0
   22    1    1    2    0    0    0.9920919314E-02    0.1076166751E-02   -0.9646211751E-02    0.1387919951E-01    0.0000000000E+00    0    0
   15    2    3    3    0    0    0.1701056671E+02   -0.1642648888E+02    0.2989632797E+02    0.3815936661E+02    0.1777029991E+01    0    0
  -16    1    3    3    0    0   -0.2530960655E+02    0.7582638741E+01   -0.3537517548E+02    0.4415286636E+02    0.0000000000E+00    0    0
   16    1    4    4    0    0    0.2370681381E+02    0.1797873116E+02    0.3322187042E+02    0.4459753799E+02    0.0000000000E+00    0    0
  -15    2    4    4    0    0   -0.1541778660E+02   -0.9135922432E+01   -0.2767969894E+02    0.3302267075E+02    0.1777029991E+01    0    0
   16    1    7    7    0    0    0.2244930267E+00   -0.2752882838E+00    0.2515923679E+00    0.4352926016E+00    0.3990691039E-03    0    0
*****    2    7    7    0    0    0.1678674126E+02   -0.1615184784E+02    0.2964591217E+02    0.3772557449E+02    0.1289174080E+01    0    0
  111    1   12   12    0    0    0.1880644441E+01   -0.1554971695E+01    0.2804255247E+01    0.3719788074E+01    0.1349640042E+00    0    0
  111    1   12   12    0    0    0.8321331024E+01   -0.7695862293E+01    0.1489988327E+02    0.1872152710E+02    0.1349633485E+00    0    0
 -211    1   12   12    0    0    0.6584764957E+01   -0.6901011944E+01    0.1194177055E+02    0.1528425503E+02    0.1395679563E+00    0    0
  -16    1   10   10    0    0   -0.6909091473E+01   -0.3921377420E+01   -0.1223809052E+02    0.1459053135E+02    0.9318720549E-04    0    0
   24    2   10   10    0    0   -0.8509302139E+01   -0.5214904785E+01   -0.1544269753E+02    0.1843343925E+02    0.1308172584E+01    0    0
  321    1   17   17    0    0   -0.3360037565E+01   -0.2544234514E+01   -0.6558899879E+01    0.7811904907E+01    0.4936670065E+00    0    0
  130    1   17   17    0    0   -0.5149266720E+01   -0.2670671701E+01   -0.8883801460E+01    0.1062153912E+02    0.4977200031E+00    0    0
</event>
<event>
   18 9999    1    0.9119999695E+02    0.7565275169E-02    0.1185000000E+00
   11   -1    0    0    0    0    0.0000000000E+00    0.0000000000E+00    0.8000000000E+02    0.8000000000E+02    0.5109988851E-03    0    0
  -11   -1    0    0    0    0    0.0000000000E+00    0.0000000000E+00   -0.8000000000E+02    0.8000000000E+02    0.5109988851E-03    0    0
  -24    2    1    2    0    0   -0.6170447350E+01   -0.1796044827E+01    0.1259929848E+02    0.8077915192E+02    0.7953131104E+02    0    0
   24    2    1    2    0    0    0.6170447350E+01    0.1796044827E+01   -0.1259929848E+02    0.7922084808E+02    0.7794805908E+02    0    0
   15    2    3    3    0    0   -0.3063728333E+02    0.2129444504E+02    0.2497450066E+02    0.4493305969E+02    0.1777029991E+01    0    0
  -16    1    3    3    0    0    0.2446683502E+02   -0.2309049034E+02   -0.1237520123E+02    0.3584609222E+02    0.0000000000E+00    0    0
   16    1    4    4    0    0    0.3233984756E+02    0.2653500795E+01    0.1942377663E+02    0.3781785202E+02    0.0000000000E+00    0    0
  -15    2    4    4    0    0   -0.2616940117E+02   -0.8574559689E+00   -0.3202307510E+02    0.4140299225E+02    0.1777029991E+01    0    0
   16    1    5    5    0    0   -0.8271971703E+01    0.5932708263E+01    0.6933506012E+01    0.1231649494E+02    0.4939701757E-03    0    0
  -24    2    5    5    0    0   -0.2236651611E+02    0.1536257458E+02    0.1804197693E+02    0.3261833191E+02    0.1474119306E+01    0    0
  130    1   10   10    0    0   -0.6216298580E+01    0.4238518715E+01    0.5188029289E+01    0.9152638435E+01    0.4977200031E+00    0    0
 -211    1   10   10    0    0   -0.9355078697E+01    0.6683265686E+01    0.7658536911E+01    0.1381507206E+02    0.1395678818E+00    0    0
  310    1   10   10    0    0   -0.6795139790E+01    0.4440791130E+01    0.5195411205E+01    0.9650625229E+01    0.4977200329E+00    0    0
  -16    1    8    8    0    0   -0.1051054287E+02   -0.4241807014E-01   -0.1207083225E+02    0.1600557137E+02    0.2729575208E-03    0    0
   24    2    8    8    0    0   -0.1565988827E+02   -0.8150716424E+00   -0.1995350266E+02    0.2539905167E+02    0.1035939455E+01    0    0
  211    1   15   15    0    0   -0.6042979717E+01   -0.3829801381E+00   -0.7767564297E+01    0.9849812508E+01    0.1395682245E+00    0    0
  111    1   15   15    0    0   -0.6696175098E+01   -0.4214165211E+00   -0.9008834839E+01    0.1123359585E+02    0.1349646151E+00    0    0
   22    1   15   15    0    0   -0.2920732260E+01   -0.1067480631E-01   -0.3177101374E+01    0.4315641880E+01    0.1930101134E-03    0    0
</event>
<event>
   18 9999    1    0.9119999695E+02    0.7565275169E-02    0.1185000000E+00
   11   -1    0    0    0    0    0.0000000000E+00    0.0000000000E+00    0.8000000000E+02    0.8000000000E+02    0.5109988851E-03    0    0
  -11   -1    0    0    0    0    0.0000000000E+00    0.0000000000E+00   -0.8000000000E+02    0.8000000000E+02    0.5109988851E-03    0    0
  -24    2    1    2    0    0   -0.8753363490E+00   -0.1034991932E+02   -0.1360936165E+02    0.8234532166E+02    0.8054594421E+02    0    0
   24    2    1    2    0    0    0.8737298250E+00    0.1034983921E+02    0.1367220116E+02    0.7759181976E+02    0.7566822052E+02    0    0
   22    1    1    2    0    0    0.1606538659E-02    0.8016121865E-04   -0.6283911318E-01    0.6285969168E-01    0.0000000000E+00    0    0
   15    2    3    3    0    0    0.7583253384E+01   -0.2937053680E+02   -0.3904632187E+02    0.4947632980E+02    0.1777029991E+01    0    0
  -16    1    3    3    0    0   -0.8458589554E+01    0.1902061844E+02    0.2543695831E+02    0.3286898804E+02    0.0000000000E+00    0    0
   16    1    4    4    0    0   -0.1357184315E+02   -0.2546304893E+02    0.2405316925E+02    0.3756483459E+02    0.0000000000E+00    0    0
  -15    2    4    4    0    0    0.1444557285E+02    0.3581288528E+02   -0.1038096905E+02    0.4002698898E+02    0.1777029991E+01    0    0
   16    1    6    6    0    0    0.5079695582E+00   -0.1487939239E+01   -0.1623750567E+01    0.2260212898E+01    0.6103515625E-04    0    0
  -24    2    6    6    0    0    0.7075582504E+01   -0.2788375282E+02   -0.3742410660E+02    0.4721806335E+02    0.1189196348E+01    0    0
 -321    1   11   11    0    0    0.5951773167E+01   -0.2349938965E+02   -0.3183069229E+02    0.4001351929E+02    0.4936670661E+00    0    0
 -211    1   11   11    0    0    0.2359951586E+00   -0.1277852774E+01   -0.1607012272E+01    0.2071368933E+01    0.1395681351E+00    0    0
  211    1   11   11    0    0    0.8878144622E+00   -0.3106511593E+01   -0.3986404419E+01    0.5133179188E+01    0.1395680457E+00    0    0
  -16    1    9    9    0    0    0.4556407928E+01    0.1024951649E+02   -0.3100353718E+01    0.1163725281E+02    0.1034901434E-03    0    0
   24    2    9    9    0    0    0.9889733315E+01    0.2556477737E+02   -0.7281023026E+01    0.2839130974E+02    0.1299411893E+01    0    0
  321    1   16   16    0    0    0.4547117233E+01    0.1167735863E+02   -0.3759288549E+01    0.1309247684E+02    0.4936670363E+00    0    0
  130    1   16   16    0    0    0.5342616558E+01    0.1388741970E+02   -0.3521734953E+01    0.1529883385E+02    0.4977201521E+00    0    0
</event>
<event>
   20 9999    1    0.9119999695E+02    0.7565275169E-02    0.1185000000E+00
   11   -1    0    0    0    0    0.0000000000E+00    0.0000000000E+00    0.8000000000E+02    0.8000000000E+02    0.5109988851E-03    0    0
  -11   -1    0    0    0    0    0.0000000000E+00    0.0000000000E+00   -0.8000000000E+02    0.8000000000E+02    0.5109988851E-03    0    0
  -24    2    1    2    0    0    0.1152692127E+02    0.7246309280E+01    0.9845477104E+01    0.7878549957E+02    0.7697299957E+02    0    0
   24    2    1    2    0    0   -0.1152692127E+02   -0.7246309280E+01   -0.9845477104E+01    0.8121450043E+02    0.7945742798E+02    0    0
   15    2    3    3    0    0    0.3248116302E+02   -0.2367423820E+02    0.9904049873E+01    0.4143360519E+02    0.1777029991E+01    0    0
  -16    1    3    3    0    0   -0.2095424271E+02    0.3092054749E+02   -0.5857301876E-01    0.3735189438E+02    0.0000000000E+00    0    0
   16    1    4    4    0    0    0.2264895439E+02    0.2154165268E+02    0.9236391068E+01    0.3259338760E+02    0.0000000000E+00    0    0
  -15    2    4    4    0    0   -0.3417587662E+02   -0.2878796196E+02   -0.1908186722E+02    0.4862111282E+02    0.1777029991E+01    0    0
   16    1    5    5    0    0    0.1085952091E+02   -0.7725224018E+01    0.3044878006E+01    0.1367039013E+02    0.1057159898E-03    0    0
  -24    2    5    5    0    0    0.2162292099E+02   -0.1594994450E+02    0.6859561443E+01    0.2776484489E+02    0.1371697426E+01    0    0
 -211    1   10   10    0    0    0.4229637146E+01   -0.3237921715E+01    0.1645668626E+01    0.5576887608E+01    0.1395680457E+00    0    0
 -211    1   10   10    0    0    0.2244405985E+01   -0.1576251030E+01    0.6669335365E+00    0.2825987339E+01    0.1395679861E+00    0    0
 -211    1   10   10    0    0    0.4330781460E+01   -0.3528166771E+01    0.1324875236E+01    0.5742682457E+01    0.1395679563E+00    0    0
  211    1   10   10    0    0    0.1251916051E+01   -0.8621264100E+00    0.3894521594E+00    0.1575343847E+01    0.1395679861E+00    0    0
  211    1   10   10    0    0    0.9566180229E+01   -0.6745479107E+01    0.2832632303E+01    0.1204394341E+02    0.1395679414E+00    0    0
  -16    1    8    8    0    0   -0.3139312744E+01   -0.2331109047E+01   -0.1569857597E+01    0.4213526726E+01    0.3097195877E-03    0    0
   24    2    8    8    0    0   -0.3103791046E+02   -0.2645798683E+02   -0.1751276207E+02    0.4440950394E+02    0.1459532857E+01    0    0
  211    1   17   17    0    0   -0.1009475327E+02   -0.8682502747E+01   -0.5526760101E+01    0.1441715813E+02    0.1395680606E+00    0    0
  310    1   17   17    0    0   -0.1746828270E+02   -0.1447091770E+02   -0.1014703560E+02    0.2485474586E+02    0.4977199435E+00    0    0
  111    1   17   17    0    0   -0.3474875450E+01   -0.3304567099E+01   -0.1838966370E+01    0.5137599945E+01    0.1349640340E+00    0    0
</event>
<event>
   22 9999    1    0.9119999695E+02    0.7565275169E-02    0.1185000000E+00
   11   -1    0    0    0    0    0.0000000000E+00    0.0000000000E+00    0.8000000000E+02    0.8000000000E+02    0.5109988851E-03    0    0
  -11   -1    0    0    0    0    0.0000000000E+00    0.0000000000E+00   -0.8000000000E+02    0.8000000000E+02    0.5109988851E-03    0    0
  -24    2    1    2    0    0   -0.1048205280E+02   -0.1176730442E+02   -0.3085468054E+01    0.7543757629E+02    0.7370864868E+02    0    0
   24    2    1    2    0    0    0.1048222733E+02    0.1176719570E+02   -0.1330136418E+01    0.8014042664E+02    0.7856446075E+02    0    0
   22    1    1    2    0    0   -0.1745287445E-03    0.1084447867E-03    0.4418799877E+01    0.4418799877E+01    0.0000000000E+00    0    0
   22    1    1    2    0    0    0.1234573688E-06    0.4673204401E-07   -0.3195502097E-02    0.3195502097E-02    0.0000000000E+00    0    0
   15    2    3    3    0    0   -0.3708933592E+01   -0.1199670911E+01    0.3337635803E+02    0.3365018082E+02    0.1777029991E+01    0    0
  -16    1    3    3    0    0   -0.6784489155E+01   -0.1014729404E+02   -0.3814606857E+02    0.4005146027E+02    0.0000000000E+00    0    0
   22    1    3    3    0    0    0.1137006376E-01   -0.4203394949E+00    0.1684240341E+01    0.1735937834E+01    0.0000000000E+00    0    0
   16    1    4    4    0    0    0.3185018158E+02    0.2660255134E+00   -0.2915329742E+02    0.4317892456E+02    0.0000000000E+00    0    0
  -15    2    4    4    0    0   -0.2136795616E+02    0.1150117016E+02    0.2782316017E+02    0.3696150208E+02    0.1777029991E+01    0    0
   16    1    7    7    0    0   -0.1030287623E+01    0.7048742473E-01    0.8626790047E+01    0.8688381195E+01    0.1495049946E-03    0    0
*****    2    7    7    0    0   -0.2678792953E+01   -0.1270205975E+01    0.2475089264E+02    0.2496313286E+02    0.1327386498E+01    0    0
  111    1   13   13    0    0   -0.1142450124E+00   -0.2463857830E+00    0.1779556751E+01    0.1805213451E+01    0.1349640638E+00    0    0
  111    1   13   13    0    0   -0.1901616573E+01   -0.8862649202E+00    0.1984608650E+02    0.1995712852E+02    0.1349644363E+00    0    0
 -211    1   13   13    0    0   -0.6629316807E+00   -0.1375551820E+00    0.3125251532E+01    0.3200793028E+01    0.1395679414E+00    0    0
  -16    1   11   11    0    0   -0.3648286343E+01    0.2348400354E+01    0.4743199348E+01    0.6428290367E+01    0.5294602015E-03    0    0
   24    2   11   11    0    0   -0.1772050858E+02    0.9153222084E+01    0.2308105659E+02    0.3053466415E+02    0.1353753328E+01    0    0
  111    1   18   18    0    0   -0.8384714127E+00    0.3726665080E+00    0.1064995408E+01    0.1412212849E+01    0.1349643618E+00    0    0
  111    1   18   18    0    0   -0.8491699219E+01    0.4602481842E+01    0.1084970474E+02    0.1452673817E+02    0.1349637061E+00    0    0
  111    1   18   18    0    0   -0.2055296898E+01    0.1026367188E+01    0.2333358049E+01    0.3277262688E+01    0.1349641234E+00    0    0
  211    1   18   18    0    0   -0.6335042000E+01    0.3151706696E+01    0.8832998276E+01    0.1131845188E+02    0.1395680606E+00    0    0
</event>
<event>
   18 9999    1    0.9119999695E+02    0.7565275169E-02    0.1185000000E+00
   11   -1    0    0    0    0    0.0000000000E+00    0.0000000000E+00    0.8000000000E+02    0.8000000000E+02    0.5109988851E-03    0    0
  -11   -1    0    0    0    0    0.0000000000E+00    0.0000000000E+00   -0.8000000000E+02    0.8000000000E+02    0.5109988851E-03    0    0
  -24    2    1    2    0    0    0.1805036163E+02    0.8102634430E+01    0.1308061886E+02    0.8441487122E+02    0.8101419067E+02    0    0
   24    2    1    2    0    0   -0.1807410240E+02   -0.8083997726E+01   -0.1313301754E+02    0.7552466583E+02    0.7169012451E+02    0    0
   22    1    1    2    0    0    0.2374006622E-01   -0.1863612421E-01    0.5239827186E-01    0.6046879292E-01    0.0000000000E+00    0    0
   15    2    3    3    0    0    0.3145215607E+02   -0.4590410709E+01    0.4040523911E+02    0.5143978119E+02    0.1777029991E+01    0    0
  -16    1    3    3    0    0   -0.1340179443E+02    0.1269304466E+02   -0.2732461929E+02    0.3297508621E+02    0.0000000000E+00    0    0
   16    1    4    4    0    0    0.1914113522E+01   -0.1944476128E+02   -0.3730838394E+02    0.4211505508E+02    0.0000000000E+00    0    0
  -15    2    4    4    0    0   -0.1998821449E+02    0.1136076355E+02    0.2417536545E+02    0.3340960693E+02    0.1777029991E+01    0    0
   16    1    6    6    0    0    0.1456419086E+02   -0.2412267685E+01    0.1814858055E+02    0.2339456367E+02    0.0000000000E+00    0    0
  -24    2    6    6    0    0    0.1688920403E+02   -0.2178323746E+01    0.2225824738E+02    0.2804724121E+02    0.1108084083E+01    0    0
 -321    1   11   11    0    0    0.9041852951E+01   -0.1411394596E+01    0.1198037434E+02    0.1508377266E+02    0.4936670065E+00    0    0
  130    1   11   11    0    0    0.7847352505E+01   -0.7669293880E+00    0.1027787685E+02    0.1296347141E+02    0.4977200627E+00    0    0
  -16    1    9    9    0    0   -0.5169919491E+01    0.3090269804E+01    0.6166584492E+01    0.8620011330E+01    0.4002342757E-03    0    0
   24    2    9    9    0    0   -0.1481908417E+02    0.8270940781E+01    0.1800973320E+02    0.2479091263E+02    0.1491676331E+01    0    0
  111    1   15   15    0    0   -0.5107906818E+01    0.3100678682E+01    0.6571608543E+01    0.8883083344E+01    0.1349638253E+00    0    0
  111    1   15   15    0    0   -0.7425056458E+01    0.3824797630E+01    0.8456925392E+01    0.1188689804E+02    0.1349640042E+00    0    0
  321    1   15   15    0    0   -0.2286119938E+01    0.1345464706E+01    0.2981198311E+01    0.4020928860E+01    0.4936669171E+00    0    0
</event>
<event>
   21 9999    1    0.9119999695E+02    0.7565275169E-02    0.1185000000E+00
   11   -1    0    0    0    0    0.0000000000E+00    0.0000000000E+00    0.8000000000E+02    0.8000000000E+02    0.5109988851E-03    0    0
  -11   -1    0    0    0    0    0.0000000000E+00    0.0000000000E+00   -0.8000000000E+02    0.8000000000E+02    0.5109988851E-03    0    0
  -24    2    1    2    0    0    0.1804688644E+02   -0.1728111649E+02   -0.1336690903E+02    0.7606266785E+02    0.7058702087E+02    0    0
   24    2    1    2    0    0   -0.1804699135E+02    0.1728117943E+02    0.1336690331E+02    0.8393721008E+02    0.7900917053E+02    0    0
   22    1    1    2    0    0    0.1046177713E-03   -0.6256214692E-04    0.5827932910E-05    0.1220363265E-03    0.0000000000E+00    0    0
   15    2    3    3    0    0    0.2106832886E+02   -0.4066738892E+02    0.5090899467E+01    0.4611708832E+02    0.1777029991E+01    0    0
  -16    1    3    3    0    0   -0.3021443367E+01    0.2338627052E+02   -0.1845780754E+02    0.2994557571E+02    0.0000000000E+00    0    0
   16    1    4    4    0    0    0.2752993393E+02   -0.5066326141E+01   -0.7572341442E+01    0.2899836731E+02    0.0000000000E+00    0    0
  -15    2    4    4    0    0   -0.4557692337E+02    0.2234750557E+02    0.2093924332E+02    0.5493884659E+02    0.1777029991E+01    0    0
   16    1    6    6    0    0    0.1131754589E+02   -0.2123159981E+02    0.2985364437E+01    0.2424417686E+02    0.1930101134E-03    0    0
   13    1    6    6    0    0    0.7781010866E+00   -0.1732017756E+01    0.4634902179E+00    0.1957374215E+01    0.1056588888E+00    0    0
  -14    1    6    6    0    0    0.8973511696E+01   -0.1770536995E+02    0.1642245173E+01    0.1991735458E+02    0.1726334885E-03    0    0
  -16    1    9    9    0    0   -0.5087358952E+01    0.2485100508E+01    0.2197979212E+01    0.6073554039E+01    0.0000000000E+00    0    0
   24    2    9    9    0    0   -0.4049135971E+02    0.1986328506E+02    0.1874209023E+02    0.4886745453E+02    0.1631550074E+01    0    0
  211    1   14   14    0    0   -0.7783790588E+01    0.3785365343E+01    0.3780295610E+01    0.9445978165E+01    0.1395680010E+00    0    0
  211    1   14   14    0    0   -0.3163431644E+01    0.1493663907E+01    0.1492199063E+01    0.3805846453E+01    0.1395680010E+00    0    0
 -211    1   14   14    0    0   -0.1774304986E+01    0.1021663904E+01    0.9972008467E+00    0.2281631947E+01    0.1395679712E+00    0    0
  111    1   14   14    0    0   -0.1552054882E+02    0.7605237484E+01    0.7084363461E+01    0.1867975998E+02    0.1349640489E+00    0    0
  111    1   14   14    0    0   -0.5102733135E+01    0.2561935663E+01    0.2149101973E+01    0.6102315426E+01    0.1349640042E+00    0    0
  111    1   14   14    0    0   -0.6503099918E+01    0.3042864799E+01    0.2927456141E+01    0.7754840374E+01    0.1349639893E+00    0    0
   22    1   14   14    0    0   -0.6434037685E+00    0.3525319099E+00    0.3114505410E+00    0.7970248461E+00    0.0000000000E+00    0    0
</event>
<event>
   22 9999    1    0.9119999695E+02    0.7565275169E-02    0.1185000000E+00
   11   -1    0    0    0    0    0.0000000000E+00    0.0000000000E+00    0.8000000000E+02    0.8000000000E+02    0.5109988851E-03    0    0
  -11   -1    0    0    0    0    0.0000000000E+00    0.0000000000E+00   -0.8000000000E+02    0.8000000000E+02    0.5109988851E-03    0    0
  -24    2    1    2    0    0   -0.1300393009E+02   -0.9659341812E+01    0.2774592590E+02    0.7248263550E+02    0.6497299957E+02    0    0
   24    2    1    2    0    0    0.1300393009E+02    0.9659341812E+01   -0.2774592590E+02    0.8751736450E+02    0.8140668488E+02    0    0
   15    2    3    3    0    0   -0.3006528282E+02    0.4813496590E+01    0.3295785904E+02    0.4490511322E+02    0.1777029991E+01    0    0
  -16    1    3    3    0    0    0.1970795631E+02   -0.1332960701E+02   -0.6097923756E+01    0.2456148529E+02    0.0000000000E+00    0    0
   22    1    3    3    0    0   -0.2646603107E+01   -0.1143231630E+01    0.8859920502E+00    0.3016035318E+01    0.0000000000E+00    0    0
   16    1    4    4    0    0   -0.1350937080E+02    0.4002205276E+02   -0.9825986862E+01    0.4336839676E+02    0.0000000000E+00    0    0
  -15    2    4    4    0    0    0.2651330185E+02   -0.3036271095E+02   -0.1791993904E+02    0.4414896774E+02    0.1777029991E+01    0    0
   16    1    5    5    0    0   -0.2588419914E+01    0.4936877191E+00    0.3236846447E+01    0.4173825741E+01    0.1831054688E-03    0    0
  -24    2    5    5    0    0   -0.2747799301E+02    0.4319988251E+01    0.2972224617E+02    0.4073297119E+02    0.1435530901E+01    0    0
  111    1   11   11    0    0   -0.1619468498E+02    0.2663371325E+01    0.1789054871E+02    0.2427861786E+02    0.1349636912E+00    0    0
  111    1   11   11    0    0   -0.5301548004E+01    0.7404826880E+00    0.5227463722E+01    0.7483269691E+01    0.1349640042E+00    0    0
 -321    1   11   11    0    0   -0.5981760025E+01    0.9161341786E+00    0.6604236126E+01    0.8971086502E+01    0.4936670959E+00    0    0
  -16    1    9    9    0    0    0.2036056757E+01   -0.1971444130E+01   -0.1198623300E+01    0.3077144146E+01    0.4037096005E-04    0    0
   24    2    9    9    0    0    0.2447828674E+02   -0.2839246178E+02   -0.1672202110E+02    0.4107356262E+02    0.1446725011E+01    0    0
  211    1   16   16    0    0    0.4465472698E+01   -0.5015406132E+01   -0.2910707474E+01    0.7320276260E+01    0.1395679712E+00    0    0
  211    1   16   16    0    0    0.2596669674E+01   -0.2889004230E+01   -0.1490638852E+01    0.4162994385E+01    0.1395679563E+00    0    0
  211    1   16   16    0    0    0.5068014145E+01   -0.6022876263E+01   -0.3649581671E+01    0.8677484512E+01    0.1395679712E+00    0    0
 -211    1   16   16    0    0    0.5764860153E+01   -0.6737351418E+01   -0.3877470732E+01    0.9678831100E+01    0.1395679712E+00    0    0
 -211    1   16   16    0    0    0.2512916565E+01   -0.2867054224E+01   -0.1657975435E+01    0.4159700871E+01    0.1395679861E+00    0    0
  111    1   16   16    0    0    0.4070353985E+01   -0.4860769749E+01   -0.3135647058E+01    0.7074274540E+01    0.1349639297E+00    0    0
</event>
<event>
   19 9999    1    0.9119999695E+02    0.7565275169E-02    0.1185000000E+00
   11   -1    0    0    0    0    0.0000000000E+00    0.0000000000E+00    0.8000000000E+02    0.8000000000E+02    0.5109988851E-03    0    0
  -11   -1    0    0    0    0    0.0000000000E+00    0.0000000000E+00   -0.8000000000E+02    0.8000000000E+02    0.5109988851E-03    0    0
  -24    2    1    2    0    0    0.2738018930E+00    0.3105826569E+02    0.1128189468E+02    0.7197025299E+02    0.6393547440E+02    0    0
   24    2    1    2    0    0   -0.2738018930E+00   -0.3105826569E+02   -0.1128189468E+02    0.8802974701E+02    0.8159206390E+02    0    0
   15    2    3    3    0    0    0.7435245514E+00   -0.1983272171E+02    0.4177353084E+00    0.1993042946E+02    0.1777029991E+01    0    0
  -16    1    3    3    0    0   -0.4697226584E+00    0.5089098740E+02    0.1086415958E+02    0.5203982162E+02    0.0000000000E+00    0    0
   16    1    4    4    0    0   -0.1176551938E+01   -0.5712613678E+02   -0.1989612961E+02    0.6050318527E+02    0.0000000000E+00    0    0
  -15    2    4    4    0    0    0.9027500153E+00    0.2606787109E+02    0.8614234924E+01    0.2752656364E+02    0.1777029991E+01    0    0
   16    1    5    5    0    0    0.1413178146E+00   -0.1192171288E+02    0.6065996289E+00    0.1193797207E+02    0.1220703125E-03    0    0
 -323    2    5    5    0    0    0.6022359729E+00   -0.7911788940E+01   -0.1888478547E+00    0.7993241310E+01    0.9471824169E+00    0    0
  111    1   10   10    0    0    0.5992529988E+00   -0.3739748001E+01   -0.9318787605E-01    0.3791004896E+01    0.1349640638E+00    0    0
 -321    1   10   10    0    0    0.2983000595E-02   -0.4172041416E+01   -0.9565993398E-01    0.4202237129E+01    0.4936670661E+00    0    0
  -16    1    8    8    0    0   -0.2414351888E-01    0.5953842163E+01    0.2261164665E+01    0.6368805885E+01    0.1495049946E-03    0    0
   24    2    8    8    0    0    0.9269290566E+00    0.2011505318E+02    0.6353408813E+01    0.2115884018E+02    0.1362407684E+01    0    0
  211    1   14   14    0    0    0.1236361116E+00    0.2491985321E+01    0.7710924149E+00    0.2615213156E+01    0.1395679861E+00    0    0
  211    1   14   14    0    0    0.4099430442E+00    0.8345392227E+01    0.2441818714E+01    0.8706065178E+01    0.1395679116E+00    0    0
  211    1   14   14    0    0    0.3420011699E+00    0.4801525116E+01    0.1587182283E+01    0.5070526123E+01    0.1395679712E+00    0    0
 -211    1   14   14    0    0    0.2159007490E+00    0.3365496397E+01    0.1179916382E+01    0.3575592518E+01    0.1395679861E+00    0    0
 -211    1   14   14    0    0   -0.1645519733E+00    0.1110654831E+01    0.3733990192E+00    0.1191443443E+01    0.1395680010E+00    0    0
</event>
<event>
   21 9999    1    0.9119999695E+02    0.7565275169E-02    0.1185000000E+00
   11   -1    0    0    0    0    0.0000000000E+00    0.0000000000E+00    0.8000000000E+02    0.8000000000E+02    0.5109988851E-03    0    0
  -11   -1    0    0    0    0    0.0000000000E+00    0.0000000000E+00   -0.8000000000E+02    0.8000000000E+02    0.5109988851E-03    0    0
  -24    2    1    2    0    0    0.1281690121E+02   -0.5846971273E+00    0.1122267437E+02    0.7715924072E+02    0.7525280762E+02    0    0
   24    2    1    2    0    0   -0.1281690121E+02    0.5846971273E+00   -0.1122267437E+02    0.8284075928E+02    0.8106804657E+02    0    0
   15    2    3    3    0    0   -0.2893735886E+02    0.3751353025E+01   -0.8966681480E+01    0.3057781219E+02    0.1777029991E+01    0    0
  -16    1    3    3    0    0    0.4175426102E+02   -0.4336050034E+01    0.2018935585E+02    0.4658142853E+02    0.0000000000E+00    0    0
   16    1    4    4    0    0   -0.5559133053E+01   -0.4572008610E+01    0.3500126266E+02    0.3573367691E+02    0.0000000000E+00    0    0
  -15    2    4    4    0    0   -0.7257768154E+01    0.5156705379E+01   -0.4622393799E+02    0.4710708237E+02    0.1777029991E+01    0    0
   16    1    5    5    0    0   -0.2950215340E+01    0.1562530249E+00   -0.8312970400E+00    0.3069077969E+01    0.3051757812E-04    0    0
  -24    2    5    5    0    0   -0.2598828316E+02    0.3595247746E+01   -0.8135737419E+01    0.2750993729E+02    0.1513213515E+01    0    0
 -211    1   10   10    0    0   -0.5593610764E+01    0.9197413325E+00   -0.1605832577E+01    0.5893435478E+01    0.1395680010E+00    0    0
 -211    1   10   10    0    0   -0.7136882782E+01    0.8139120936E+00   -0.2386852741E+01    0.7570607185E+01    0.1395680010E+00    0    0
  211    1   10   10    0    0   -0.6261462688E+01    0.1013919473E+01   -0.2152534723E+01    0.6699763775E+01    0.1395679861E+00    0    0
  111    1   10   10    0    0   -0.4764681339E+01    0.6081396341E+00   -0.1351103067E+01    0.4991564751E+01    0.1349640191E+00    0    0
  111    1   10   10    0    0   -0.1499523878E+01    0.1426401287E+00   -0.3697883785E+00    0.1556880474E+01    0.1349640042E+00    0    0
  111    1   10   10    0    0   -0.7321214676E+00    0.9689511359E-01   -0.2696257532E+00    0.7976865768E+00    0.1349640042E+00    0    0
  -16    1    8    8    0    0   -0.7225940824E+00    0.3361267745E+00   -0.6262918949E+01    0.6313420773E+01    0.3452669771E-03    0    0
20213    2    8    8    0    0   -0.6535459518E+01    0.4820781708E+01   -0.3996283722E+02    0.4079551315E+02    0.1137279391E+01    0    0
  111    1   18   18    0    0   -0.2757072449E+01    0.2108469248E+01   -0.1692298698E+02    0.1727578545E+02    0.1349640489E+00    0    0
  111    1   18   18    0    0   -0.2155832767E+01    0.1983488321E+01   -0.1356943321E+02    0.1388270760E+02    0.1349637359E+00    0    0
  211    1   18   18    0    0   -0.1622554779E+01    0.7288240790E+00   -0.9470418930E+01    0.9637022018E+01    0.1395677775E+00    0    0
</event>
<event>
   21 9999    1    0.9119999695E+02    0.7565275169E-02    0.1185000000E+00
   11   -1    0    0    0    0    0.0000000000E+00    0.0000000000E+00    0.8000000000E+02    0.8000000000E+02    0.5109988851E-03    0    0
  -11   -1    0    0    0    0    0.0000000000E+00    0.0000000000E+00   -0.8000000000E+02    0.8000000000E+02    0.5109988851E-03    0    0
  -24    2    1    2    0    0    0.2849861145E+02   -0.4590775967E+01   -0.1656707954E+02    0.7362245178E+02    0.6567002106E+02    0    0
   24    2    1    2    0    0   -0.2849861145E+02    0.4590775967E+01    0.1656707954E+02    0.8637754822E+02    0.7970800781E+02    0    0
   15    2    3    3    0    0    0.3029298210E+02   -0.2059219360E+01    0.2033731842E+02    0.3658783340E+02    0.1777029991E+01    0    0
  -16    1    3    3    0    0   -0.1794370770E+01   -0.2531556845E+01   -0.3690439606E+02    0.3703462219E+02    0.0000000000E+00    0    0
   16    1    4    4    0    0    0.4074744225E+01   -0.3205175400E+02   -0.5164951801E+01    0.3271995163E+02    0.0000000000E+00    0    0
  -15    2    4    4    0    0   -0.3257335663E+02    0.3664252853E+02    0.2173203087E+02    0.5365759659E+02    0.1777029991E+01    0    0
   16    1    5    5    0    0    0.6051967621E+01   -0.5882424712E+00    0.3940547228E+01    0.7245705605E+01    0.5285799489E-04    0    0
  -24    2    5    5    0    0    0.2424220848E+02   -0.1471057892E+01    0.1639757156E+02    0.2934356880E+02    0.1521828890E+01    0    0
 -211    1   10   10    0    0    0.8772069931E+01   -0.7134043574E+00    0.5803995132E+01    0.1054343414E+02    0.1395680159E+00    0    0
 -211    1   10   10    0    0    0.4150971413E+01   -0.4238178730E+00    0.2826604843E+01    0.5041761398E+01    0.1395679861E+00    0    0
 -211    1   10   10    0    0    0.6293237686E+01   -0.1766847260E-01    0.4325310707E+01    0.7637600899E+01    0.1395679563E+00    0    0
  211    1   10   10    0    0    0.2978505135E+01   -0.2437003255E+00    0.2056827307E+01    0.3630551100E+01    0.1395680010E+00    0    0
  211    1   10   10    0    0    0.1171723247E+01   -0.1238616183E-01    0.8369668126E+00    0.1446748495E+01    0.1395679712E+00    0    0
  111    1   10   10    0    0    0.8757004738E+00   -0.6008065864E-01    0.5478671193E+00    0.1043472409E+01    0.1349640042E+00    0    0
  -16    1    8    8    0    0   -0.2249438524E+01    0.2301137686E+01    0.1363508105E+01    0.3494905233E+01    0.2229559177E-03    0    0
   24    2    8    8    0    0   -0.3032520103E+02    0.3434283447E+02    0.2036937904E+02    0.5016480255E+02    0.1596175551E+01    0    0
  321    1   18   18    0    0   -0.7131699562E+01    0.8603487015E+01    0.4933130264E+01    0.1222540855E+02    0.4936669767E+00    0    0
  211    1   18   18    0    0   -0.6333062649E+01    0.7004175186E+01    0.4455826759E+01    0.1044222355E+02    0.1395673156E+00    0    0
 -321    1   18   18    0    0   -0.1686044121E+02    0.1873517418E+02    0.1098042393E+02    0.2749717522E+02    0.4936670661E+00    0    0
</event>
<event>
   15 9999    1    0.9119999695E+02    0.7565275169E-02    0.1185000000E+00
   11   -1    0    0    0    0    0.0000000000E+00    0.0000000000E+00    0.8000000000E+02    0.8000000000E+02    0.5109988851E-03    0    0
  -11   -1    0    0    0    0    0.0000000000E+00    0.0000000000E+00   -0.8000000000E+02    0.8000000000E+02    0.5109988851E-03    0    0
  -24    2    1    2    0    0    0.8633609772E+01   -0.4497936249E+02   -0.5596813679E+01    0.6925486755E+02    0.5164522934E+02    0    0
   24    2    1    2    0    0   -0.8633609772E+01    0.4497936249E+02    0.5596813679E+01    0.9074513245E+02    0.7813880920E+02    0    0
   15    2    3    3    0    0   -0.4772978306E+01   -0.3012050247E+02    0.2018696785E+02    0.3661553574E+02    0.1777029991E+01    0    0
  -16    1    3    3    0    0    0.1340658855E+02   -0.1485886097E+02   -0.2578378105E+02    0.3263932800E+02    0.0000000000E+00    0    0
   16    1    4    4    0    0   -0.3108723259E+02    0.5572176743E+02    0.1212989902E+02    0.6494972229E+02    0.0000000000E+00    0    0
  -15    2    4    4    0    0    0.2245362282E+02   -0.1074240589E+02   -0.6533085823E+01    0.2579541588E+02    0.1777029991E+01    0    0
   16    1    5    5    0    0   -0.1039108396E+01   -0.9533442497E+01    0.6167417049E+01    0.1140189838E+02    0.1057159898E-03    0    0
  -24    2    5    5    0    0   -0.3734057903E+01   -0.2058824539E+02    0.1402034664E+02    0.2521507835E+02    0.1187875390E+01    0    0
 -321    1   10   10    0    0   -0.2244739056E+01   -0.1318172741E+02    0.9244234085E+01    0.1626334381E+02    0.4936670065E+00    0    0
  130    1   10   10    0    0   -0.1489318728E+01   -0.7406517982E+01    0.4776112080E+01    0.8951734543E+01    0.4977200627E+00    0    0
  -16    1    8    8    0    0    0.9084864616E+01   -0.3750631809E+01   -0.2787998676E+01    0.1021640491E+02    0.1930101134E-03    0    0
  -11    1    8    8    0    0    0.1190977192E+02   -0.5934062481E+01   -0.3079000711E+01    0.1365781879E+02    0.5725605297E-03    0    0
   12    1    8    8    0    0    0.1459870934E+01   -0.1058133841E+01   -0.6663436294E+00    0.1922208190E+01    0.2729575208E-03    0    0
</event>
<event>
   18 9999    1    0.9119999695E+02    0.7565275169E-02    0.1185000000E+00
   11   -1    0    0    0    0    0.0000000000E+00    0.0000000000E+00    0.8000000000E+02    0.8000000000E+02    0.5109988851E-03    0    0
  -11   -1    0    0    0    0    0.0000000000E+00    0.0000000000E+00   -0.8000000000E+02    0.8000000000E+02    0.5109988851E-03    0    0
  -24    2    1    2    0    0   -0.1530595398E+02   -0.3941563416E+02    0.3004376793E+02    0.9547489929E+02    0.8015587616E+02    0    0
   24    2    1    2    0    0    0.1530595398E+02    0.3941563416E+02   -0.3004376793E+02    0.6452510071E+02    0.3837962723E+02    0    0
   15    2    3    3    0    0   -0.2059092331E+02   -0.6080496216E+02    0.8715456963E+01    0.6481008148E+02    0.1777029991E+01    0    0
  -16    1    3    3    0    0    0.5284970284E+01    0.2138932991E+02    0.2132831192E+02    0.3066481972E+02    0.0000000000E+00    0    0
   16    1    4    4    0    0    0.7635818481E+01    0.2690681076E+02    0.3192122936E+01    0.2815087700E+02    0.0000000000E+00    0    0
  -15    2    4    4    0    0    0.7670135021E+01    0.1250882244E+02   -0.3323588943E+02    0.3637422180E+02    0.1777029991E+01    0    0
   16    1    5    5    0    0   -0.6585322618E+00   -0.1804790378E+01    0.1085579470E+00    0.1924244642E+01    0.4184359568E-03    0    0
  -24    2    5    5    0    0   -0.1993320274E+02   -0.5900257111E+02    0.8607242584E+01    0.6288839340E+02    0.1493116856E+01    0    0
 -321    1   10   10    0    0   -0.5586872101E+01   -0.1755128670E+02    0.2751299143E+01    0.1862992668E+02    0.4936670661E+00    0    0
 -211    1   10   10    0    0   -0.4322702408E+01   -0.1285277081E+02    0.1860919833E+01    0.1368802261E+02    0.1395682991E+00    0    0
  321    1   10   10    0    0   -0.1002363014E+02   -0.2859851646E+02    0.3995023966E+01    0.3057044792E+02    0.4936669171E+00    0    0
  -16    1    8    8    0    0    0.3345199823E+01    0.5361057758E+01   -0.1592702579E+02    0.1713480186E+02    0.4228639591E-03    0    0
20213    2    8    8    0    0    0.4325236797E+01    0.7148256779E+01   -0.1731017303E+02    0.1924084854E+02    0.8734610677E+00    0    0
  211    1   15   15    0    0    0.1062903166E+01    0.2011019468E+01   -0.4195474625E+01    0.4774457932E+01    0.1395681202E+00    0    0
  211    1   15   15    0    0    0.1318378806E+01    0.2456267357E+01   -0.6036707401E+01    0.6650765896E+01    0.1395683289E+00    0    0
 -211    1   15   15    0    0    0.1943954825E+01    0.2680969477E+01   -0.7077991009E+01    0.7815624714E+01    0.1395679861E+00    0    0
</event>
<event>
   18 9999    1    0.9119999695E+02    0.7565275169E-02    0.1185000000E+00
   11   -1    0    0    0    0    0.0000000000E+00    0.0000000000E+00    0.8000000000E+02    0.8000000000E+02    0.5109988851E-03    0    0
  -11   -1    0    0    0    0    0.0000000000E+00    0.0000000000E+00   -0.8000000000E+02    0.8000000000E+02    0.5109988851E-03    0    0
  -24    2    1    2    0    0    0.2925980759E+02    0.5258443356E+01    0.1119921017E+02    0.8708980560E+02    0.8108898926E+02    0    0
   24    2    1    2    0    0   -0.2925980759E+02   -0.5258443356E+01   -0.1119921017E+02    0.7291019440E+02    0.6562535095E+02    0    0
   15    2    3    3    0    0    0.5444708252E+02    0.1885200500E+02    0.9447524071E+01    0.5841486359E+02    0.1777029991E+01    0    0
  -16    1    3    3    0    0   -0.2518727303E+02   -0.1359356117E+02    0.1751685500E+01    0.2867493820E+02    0.0000000000E+00    0    0
   16    1    4    4    0    0   -0.9646983147E+01   -0.2340682411E+02    0.1965779305E+02    0.3205265045E+02    0.0000000000E+00    0    0
  -15    2    4    4    0    0   -0.1961282539E+02    0.1814838028E+02   -0.3085700226E+02    0.4085754395E+02    0.1777029991E+01    0    0
   16    1    5    5    0    0    0.7384531021E+01    0.2108221292E+01    0.1102428079E+01    0.7758301735E+01    0.2114319796E-03    0    0
   11    1    5    5    0    0    0.2931797409E+02    0.1087702179E+02    0.4892714024E+01    0.3165109634E+02    0.4567452997E-03    0    0
  -12    1    5    5    0    0    0.1774671936E+02    0.5867503166E+01    0.3452754259E+01    0.1900776672E+02    0.1726334885E-03    0    0
  -16    1    8    8    0    0   -0.1047525883E+01    0.8994905949E+00   -0.1227762341E+01    0.1847645640E+01    0.2927143360E-03    0    0
   24    2    8    8    0    0   -0.1856607056E+02    0.1724960518E+02   -0.2963045502E+02    0.3901150894E+02    0.1298501849E+01    0    0
  211    1   13   13    0    0   -0.5901212215E+01    0.5251632690E+01   -0.8906294823E+01    0.1190569305E+02    0.1395682395E+00    0    0
  211    1   13   13    0    0   -0.7000441551E+01    0.6556064606E+01   -0.1133870220E+02    0.1485172749E+02    0.1395680457E+00    0    0
 -211    1   13   13    0    0   -0.6162248850E+00    0.7020561695E+00   -0.1028835654E+01    0.1396638036E+01    0.1395679861E+00    0    0
  111    1   13   13    0    0   -0.3623305321E+01    0.3405891418E+01   -0.5924476147E+01    0.7736024380E+01    0.1349639893E+00    0    0
  111    1   13   13    0    0   -0.1424886465E+01    0.1333958983E+01   -0.2432145119E+01    0.3121424913E+01    0.1349639744E+00    0    0
</event>
<event>
   18 9999    1    0.9119999695E+02    0.7565275169E-02    0.1185000000E+00
   11   -1    0    0    0    0    0.0000000000E+00    0.0000000000E+00    0.8000000000E+02    0.8000000000E+02    0.5109988851E-03    0    0
  -11   -1    0    0    0    0    0.0000000000E+00    0.0000000000E+00   -0.8000000000E+02    0.8000000000E+02    0.5109988851E-03    0    0
  -24    2    1    2    0    0    0.8199594021E+00    0.2567930222E+01    0.1923877144E+02    0.7756449127E+02    0.7509230042E+02    0    0
   24    2    1    2    0    0   -0.8199594021E+00   -0.2567930222E+01   -0.1923877144E+02    0.8243550873E+02    0.8011376953E+02    0    0
   15    2    3    3    0    0   -0.3940503597E+01   -0.3501712799E+02    0.1811722755E+02    0.3966255951E+02    0.1777029991E+01    0    0
  -16    1    3    3    0    0    0.4760462761E+01    0.3758506012E+02    0.1121544719E+01    0.3790193176E+02    0.0000000000E+00    0    0
   16    1    4    4    0    0    0.1004262257E+02    0.4380653381E+01    0.2977281761E+02    0.3172483444E+02    0.0000000000E+00    0    0
  -15    2    4    4    0    0   -0.1086258221E+02   -0.6948583603E+01   -0.4901158905E+02    0.5071067429E+02    0.1777029991E+01    0    0
   16    1    5    5    0    0   -0.2621827126E+01   -0.1743352699E+02    0.9288754463E+01    0.1992693710E+02    0.0000000000E+00    0    0
 -213    2    5    5    0    0   -0.1318831563E+01   -0.1758498001E+02    0.8829186440E+01    0.1973718452E+02    0.7944027781E+00    0    0
 -211    1   10   10    0    0   -0.5713877678E+00   -0.1130552769E+02    0.5914561272E+01    0.1277274323E+02    0.1395679265E+00    0    0
  111    1   10   10    0    0   -0.7474437952E+00   -0.6279452801E+01    0.2914625168E+01    0.6964442253E+01    0.1349641234E+00    0    0
  -16    1    8    8    0    0   -0.5793942928E+01   -0.3568675756E+01   -0.2479945946E+02    0.2571611214E+02    0.4228639591E-03    0    0
   24    2    8    8    0    0   -0.5069066048E+01   -0.3380181074E+01   -0.2421405792E+02    0.2499655533E+02    0.1177322030E+01    0    0
  211    1   14   14    0    0   -0.3388431966E+00   -0.3550638556E+00   -0.1810828567E+01    0.1881346345E+01    0.1395678967E+00    0    0
  211    1   14   14    0    0   -0.1308709502E+01   -0.8691097498E+00   -0.6317214966E+01    0.6511126041E+01    0.1395678520E+00    0    0
 -211    1   14   14    0    0   -0.7404398918E+00   -0.1805895567E+00   -0.3445401907E+01    0.3531449556E+01    0.1395678222E+00    0    0
  111    1   14   14    0    0   -0.2681074142E+01   -0.1975418210E+01   -0.1264061546E+02    0.1307263565E+02    0.1349639744E+00    0    0
</event>
<event>
   19 9999    1    0.9119999695E+02    0.7565275169E-02    0.1185000000E+00
   11   -1    0    0    0    0    0.0000000000E+00    0.0000000000E+00    0.8000000000E+02    0.8000000000E+02    0.5109988851E-03    0    0
  -11   -1    0    0    0    0    0.0000000000E+00    0.0000000000E+00   -0.8000000000E+02    0.8000000000E+02    0.5109988851E-03    0    0
  -24    2    1    2    0    0   -0.2093231964E+02    0.6893504620E+01    0.5121635437E+01    0.8132329559E+02    0.7811251831E+02    0    0
   24    2    1    2    0    0    0.2097067261E+02   -0.6805282116E+01   -0.5019999504E+01    0.7853648376E+02    0.7521102142E+02    0    0
   22    1    1    2    0    0   -0.3837855533E-01   -0.8829043806E-01   -0.1017557904E+00    0.1400798112E+00    0.0000000000E+00    0    0
   22    1    1    2    0    0    0.2574926475E-04    0.6810209743E-04    0.1203084248E-03    0.1406237425E-03    0.0000000000E+00    0    0
   15    2    3    3    0    0   -0.8049818993E+01    0.3721756363E+02    0.2230366898E+02    0.4416512680E+02    0.1777029991E+01    0    0
  -16    1    3    3    0    0   -0.1288250160E+02   -0.3032406044E+02   -0.1718203354E+02    0.3715817261E+02    0.0000000000E+00    0    0
   16    1    4    4    0    0    0.1095628834E+02    0.9878735542E+01    0.3280123901E+02    0.3596596909E+02    0.0000000000E+00    0    0
  -15    2    4    4    0    0    0.1001438522E+02   -0.1668401718E+02   -0.3782123947E+02    0.4257051086E+02    0.1777029991E+01    0    0
   16    1    7    7    0    0   -0.9068270922E+00    0.3322738171E+01    0.2092538118E+01    0.4030091763E+01    0.7738478016E-03    0    0
  -24    2    7    7    0    0   -0.7143308163E+01    0.3389628983E+02    0.2021200752E+02    0.4013676834E+02    0.1565128326E+01    0    0
 -211    1   12   12    0    0   -0.8892804980E+00    0.3297419548E+01    0.1629934311E+01    0.3786813974E+01    0.1395683289E+00    0    0
  111    1   12   12    0    0   -0.2878797531E+01    0.1578288460E+02    0.9747925758E+01    0.1877304459E+02    0.1349637806E+00    0    0
   22    1   12   12    0    0   -0.3375229836E+01    0.1481598473E+02    0.8834146500E+01    0.1757690811E+02    0.1087021374E-03    0    0
  -16    1   10   10    0    0    0.6639273763E+00   -0.8213382363E+00   -0.2624153376E+01    0.2828706026E+01    0.1930101134E-03    0    0
   24    2   10   10    0    0    0.9350851059E+01   -0.1586333561E+02   -0.3519857407E+02    0.3974347687E+02    0.1233155012E+01    0    0
  321    1   17   17    0    0    0.2847101212E+01   -0.5414976120E+01   -0.1156917572E+02    0.1309646893E+02    0.4936669469E+00    0    0
  310    1   17   17    0    0    0.6503750324E+01   -0.1044835949E+02   -0.2362939835E+02    0.2664701080E+02    0.4977199435E+00    0    0
</event>
<event>
   23 9999    1    0.9119999695E+02    0.7565275169E-02    0.1185000000E+00
   11   -1    0    0    0    0    0.0000000000E+00    0.0000000000E+00    0.8000000000E+02    0.8000000000E+02    0.5109988851E-03    0    0
  -11   -1    0    0    0    0    0.0000000000E+00    0.0000000000E+00   -0.8000000000E+02    0.8000000000E+02    0.5109988851E-03    0    0
  -24    2    1    2    0    0    0.1941999054E+02    0.2570728683E+02   -0.4905156612E+01    0.7547669983E+02    0.6807842255E+02    0    0
   24    2    1    2    0    0   -0.1942031479E+02   -0.2570473480E+02    0.5030159950E+01    0.8439826965E+02    0.7784525299E+02    0    0
   22    1    1    2    0    0    0.3241874801E-03   -0.2552525373E-02   -0.1250030845E+00    0.1250295639E+00    0.0000000000E+00    0    0
   15    2    3    3    0    0    0.1083631420E+02    0.3791919708E+02    0.1341808510E+02    0.4169524765E+02    0.1777029991E+01    0    0
  -16    1    3    3    0    0    0.5201862335E+01   -0.1856813431E+02   -0.1829596329E+02    0.2658152199E+02    0.0000000000E+00    0    0
   22    1    3    3    0    0    0.3381814003E+01    0.6356224537E+01   -0.2727832645E-01    0.7199930191E+01    0.0000000000E+00    0    0
   16    1    4    4    0    0    0.1612367058E+02    0.1501269531E+02    0.1838642883E+02    0.2869519997E+02    0.0000000000E+00    0    0
  -15    2    4    4    0    0   -0.3554398346E+02   -0.4071743011E+02   -0.1335626793E+02    0.5570306778E+02    0.1777029991E+01    0    0
   16    1    6    6    0    0    0.9315420389E+00    0.2750212908E+01    0.1068505049E+01    0.3094049692E+01    0.5285799489E-04    0    0
  -24    2    6    6    0    0    0.9905196190E+01    0.3517046738E+02    0.1235010529E+02    0.3860283279E+02    0.1605913997E+01    0    0
 -211    1   12   12    0    0    0.2168143034E+01    0.7507642269E+01    0.2510523081E+01    0.8209003448E+01    0.1395680308E+00    0    0
 -211    1   12   12    0    0    0.1852830172E+01    0.5850007534E+01    0.2289690495E+01    0.6551162243E+01    0.1395680457E+00    0    0
  211    1   12   12    0    0    0.1095073104E+01    0.3388275385E+01    0.1286478281E+01    0.3788680315E+01    0.1395680010E+00    0    0
  111    1   12   12    0    0    0.5365193486E+00    0.1827668548E+01    0.7569589615E+00    0.2054124355E+01    0.1349640191E+00    0    0
  111    1   12   12    0    0    0.1645517468E+01    0.6218252182E+01    0.1960464835E+01    0.6725772381E+01    0.1349639744E+00    0    0
  111    1   12   12    0    0    0.2607113123E+01    0.1037862206E+02    0.3545989275E+01    0.1127408791E+02    0.1349641234E+00    0    0
  -16    1   10   10    0    0   -0.1217187881E+01   -0.1561689138E+01   -0.3817186952E+00    0.2016464472E+01    0.6509621744E-03    0    0
   24    2   10   10    0    0   -0.3432819366E+02   -0.3915734100E+02   -0.1297507477E+02    0.5368879318E+02    0.1552923441E+01    0    0
  221    1   20   20    0    0   -0.2442229652E+02   -0.2824024963E+02   -0.8993093491E+01    0.3840751648E+02    0.5487998128E+00    0    0
  211    1   20   20    0    0   -0.5215890408E+01   -0.5367745399E+01   -0.1958090305E+01    0.7737686634E+01    0.1395681500E+00    0    0
  111    1   20   20    0    0   -0.4690011978E+01   -0.5549351692E+01   -0.2023892879E+01    0.7543598175E+01    0.1349639893E+00    0    0
</event>
<event>
   19 9999    1    0.9119999695E+02    0.7565275169E-02    0.1185000000E+00
   11   -1    0    0    0    0    0.0000000000E+00    0.0000000000E+00    0.8000000000E+02    0.8000000000E+02    0.5109988851E-03    0    0
  -11   -1    0    0    0    0    0.0000000000E+00    0.0000000000E+00   -0.8000000000E+02    0.8000000000E+02    0.5109988851E-03    0    0
  -24    2    1    2    0    0    0.4143071771E+00    0.1818077469E+02   -0.1415584469E+02    0.7720952606E+02    0.7368996429E+02    0    0
   24    2    1    2    0    0   -0.4143071771E+00   -0.1818077469E+02    0.1415584469E+02    0.8279047394E+02    0.7951831818E+02    0    0
   15    2    3    3    0    0   -0.2203004074E+02   -0.1495508862E+02   -0.2411469460E+02    0.3596739960E+02    0.1777029991E+01    0    0
  -16    1    3    3    0    0    0.2244434738E+02    0.3313586426E+02    0.9958849907E+01    0.4124212646E+02    0.0000000000E+00    0    0
   16    1    4    4    0    0   -0.1497930241E+02   -0.3188053513E+02   -0.2193266869E+02    0.4149445724E+02    0.0000000000E+00    0    0
  -15    2    4    4    0    0    0.1456499577E+02    0.1369976044E+02    0.3608851242E+02    0.4129602051E+02    0.1777029991E+01    0    0
   16    1    5    5    0    0   -0.4441574097E+01   -0.2612825632E+01   -0.3998363733E+01    0.6522373199E+01    0.1220703125E-03    0    0
 -213    2    5    5    0    0   -0.1758933258E+02   -0.1234285069E+02   -0.2011727905E+02    0.2944643974E+02    0.8107069731E+00    0    0
 -211    1   10   10    0    0   -0.7699692726E+01   -0.5784767151E+01   -0.9306759834E+01    0.1339343357E+02    0.1395676434E+00    0    0
  111    1   10   10    0    0   -0.9889637947E+01   -0.6558081627E+01   -0.1081051636E+02    0.1605300140E+02    0.1349639893E+00    0    0
  -16    1    8    8    0    0    0.3065981627E+01    0.3092977285E+01    0.7385626793E+01    0.8574044228E+01    0.0000000000E+00    0    0
   24    2    8    8    0    0    0.1149958611E+02    0.1060732079E+02    0.2870430565E+02    0.3272359848E+02    0.1463199973E+01    0    0
  211    1   14   14    0    0    0.1650872827E+01    0.1363713264E+01    0.3825866699E+01    0.4386550903E+01    0.1395679563E+00    0    0
  211    1   14   14    0    0    0.3206670523E+01    0.3080240726E+01    0.8959333420E+01    0.1000298691E+02    0.1395678520E+00    0    0
  211    1   14   14    0    0    0.1562551975E+01    0.1601506352E+01    0.4180659771E+01    0.4743815422E+01    0.1395679712E+00    0    0
 -211    1   14   14    0    0    0.3681581020E+01    0.3066261053E+01    0.8413841248E+01    0.9683398247E+01    0.1395679563E+00    0    0
 -211    1   14   14    0    0    0.1397909999E+01    0.1495599985E+01    0.3324604988E+01    0.3906846523E+01    0.1395679265E+00    0    0
</event>
<event>
   16 9999    1    0.9119999695E+02    0.7565275169E-02    0.1185000000E+00
   11   -1    0    0    0    0    0.0000000000E+00    0.0000000000E+00    0.8000000000E+02    0.8000000000E+02    0.5109988851E-03    0    0
  -11   -1    0    0    0    0    0.0000000000E+00    0.0000000000E+00   -0.8000000000E+02    0.8000000000E+02    0.5109988851E-03    0    0
  -24    2    1    2    0    0    0.1656049919E+02   -0.1237293816E+02   -0.2008158922E+01    0.7682929993E+02    0.7396870422E+02    0    0
   24    2    1    2    0    0   -0.1656049919E+02    0.1237293816E+02    0.2008158922E+01    0.8317070007E+02    0.8053565979E+02    0    0
   15    2    3    3    0    0    0.2489682961E+02    0.2660910225E+02    0.3215602160E+01    0.3662505341E+02    0.1777029991E+01    0    0
  -16    1    3    3    0    0   -0.8336330414E+01   -0.3898204041E+02   -0.5223761082E+01    0.4020425034E+02    0.0000000000E+00    0    0
   16    1    4    4    0    0    0.1110977554E+02    0.2794416428E+02    0.2876285553E+02    0.4161256027E+02    0.0000000000E+00    0    0
  -15    2    4    4    0    0   -0.2767027473E+02   -0.1557122517E+02   -0.2675469780E+02    0.4155813599E+02    0.1777029991E+01    0    0
   16    1    5    5    0    0    0.4655481339E+01    0.5527765274E+01    0.5385071039E+00    0.7247046947E+01    0.4825252690E-03    0    0
  -24    2    5    5    0    0    0.2024232864E+02    0.2108238411E+02    0.2677221537E+01    0.2937944603E+02    0.1328744054E+01    0    0
  111    1   10   10    0    0    0.8054948807E+01    0.8450485229E+01    0.7817668915E+00    0.1170137882E+02    0.1349640489E+00    0    0
  111    1   10   10    0    0    0.6683300495E+01    0.6603129387E+01    0.8876059055E+00    0.9437895775E+01    0.1349639893E+00    0    0
 -321    1   10   10    0    0    0.5504079819E+01    0.6028771400E+01    0.1007848859E+01    0.8240172386E+01    0.4936671257E+00    0    0
  -16    1    8    8    0    0   -0.6923640728E+01   -0.4220315456E+01   -0.7400435448E+01    0.1097790051E+02    0.1726334885E-03    0    0
  -11    1    8    8    0    0   -0.1596166134E+02   -0.8948040009E+01   -0.1439696503E+02    0.2328335571E+02    0.4882812500E-03    0    0
   12    1    8    8    0    0   -0.4786061764E+01   -0.2403482914E+01   -0.4958349705E+01    0.7298517227E+01    0.1220703125E-03    0    0
</event>
<event>
   22 9999    1    0.9119999695E+02    0.7565275169E-02    0.1185000000E+00
   11   -1    0    0    0    0    0.0000000000E+00    0.0000000000E+00    0.8000000000E+02    0.8000000000E+02    0.5109988851E-03    0    0
  -11   -1    0    0    0    0    0.0000000000E+00    0.0000000000E+00   -0.8000000000E+02    0.8000000000E+02    0.5109988851E-03    0    0
  -24    2    1    2    0    0   -0.6790009975E+01    0.9977334738E+00    0.5460146070E+00    0.7860776520E+02    0.7830570221E+02    0    0
   24    2    1    2    0    0    0.6746089935E+01   -0.9808378816E+00   -0.7213382125E+00    0.8120496368E+02    0.8091510010E+02    0    0
   22    1    1    2    0    0    0.6630606484E-02    0.5181017914E-03    0.9873328358E-01    0.9895703942E-01    0.0000000000E+00    0    0
   22    1    1    2    0    0    0.3736765310E-01   -0.1775523648E-01    0.6716943532E-01    0.7888804376E-01    0.0000000000E+00    0    0
   22    1    1    2    0    0   -0.7836098666E-04    0.3415251558E-03    0.9420862421E-02    0.9427377023E-02    0.0000000000E+00    0    0
   15    2    3    3    0    0   -0.1053767109E+02   -0.2269466209E+02    0.3097672844E+02    0.3985982513E+02    0.1777029991E+01    0    0
  -16    1    3    3    0    0    0.3747660875E+01    0.2369239426E+02   -0.3043071365E+02    0.3874794006E+02    0.0000000000E+00    0    0
   16    1    4    4    0    0   -0.3335460186E+01   -0.2115844154E+02   -0.3446439362E+02    0.4057831192E+02    0.0000000000E+00    0    0
  -15    2    4    4    0    0    0.1008155060E+02    0.2017760277E+02    0.3374305344E+02    0.4062665176E+02    0.1777029991E+01    0    0
   16    1    8    8    0    0   -0.1092399657E+00   -0.4119986296E+00    0.5661792755E+00    0.7086858153E+00    0.6227661506E-03    0    0
  -24    2    8    8    0    0   -0.1042884541E+02   -0.2228355598E+02    0.3041176605E+02    0.3915270615E+02    0.1655672908E+01    0    0
 -321    1   13   13    0    0   -0.1679125905E+01   -0.4091785908E+01    0.5622898102E+01    0.7170973778E+01    0.4936670065E+00    0    0
 -211    1   13   13    0    0   -0.2598651886E+01   -0.6106237411E+01    0.8172730446E+01    0.1052863407E+02    0.1395673454E+00    0    0
  321    1   13   13    0    0   -0.6151066780E+01   -0.1208553123E+02    0.1661613655E+02    0.2145309639E+02    0.4936669171E+00    0    0
  -16    1   11   11    0    0    0.2939294338E+01    0.5869405270E+01    0.9420875549E+01    0.1148225880E+02    0.3762459673E-03    0    0
   24    2   11   11    0    0    0.7142652512E+01    0.1430899143E+02    0.2432350731E+02    0.2914599228E+02    0.1446082473E+01    0    0
  211    1   18   18    0    0    0.8858020902E+00    0.1606201768E+01    0.2557801247E+01    0.3150611877E+01    0.1395679563E+00    0    0
  211    1   18   18    0    0    0.3832553327E+00    0.1175539970E+01    0.1504619002E+01    0.1952469349E+01    0.1395683140E+00    0    0
 -211    1   18   18    0    0    0.4912274837E+01    0.9606933594E+01    0.1675515175E+02    0.1992932892E+02    0.1395683289E+00    0    0
  111    1   18   18    0    0    0.9613202214E+00    0.1920315981E+01    0.3505934238E+01    0.4113580227E+01    0.1349640042E+00    0    0
</event>
<event>
   20 9999    1    0.9119999695E+02    0.7565275169E-02    0.1185000000E+00
   11   -1    0    0    0    0    0.0000000000E+00    0.0000000000E+00    0.8000000000E+02    0.8000000000E+02    0.5109988851E-03    0    0
  -11   -1    0    0    0    0    0.0000000000E+00    0.0000000000E+00   -0.8000000000E+02    0.8000000000E+02    0.5109988851E-03    0    0
  -24    2    1    2    0    0    0.8527003288E+01   -0.3260504913E+02    0.1113614559E+02    0.8749810028E+02    0.7997564697E+02    0    0
   24    2    1    2    0    0   -0.8526852608E+01    0.3260492706E+02   -0.1113516998E+02    0.7250090790E+02    0.6321867752E+02    0    0
   22    1    1    2    0    0   -0.1504457177E-03    0.1221939456E-03   -0.9753046324E-03    0.9943763725E-03    0.0000000000E+00    0    0
   15    2    3    3    0    0   -0.3142201424E+01    0.2624685097E+02    0.1012981683E+00    0.2649412727E+02    0.1777029991E+01    0    0
  -16    1    3    3    0    0    0.1166920471E+02   -0.5885190201E+02    0.1103484726E+02    0.6100397110E+02    0.0000000000E+00    0    0
   16    1    4    4    0    0   -0.3068506813E+02    0.9699394107E+00    0.4040556908E+01    0.3096514702E+02    0.0000000000E+00    0    0
  -15    2    4    4    0    0    0.2215821457E+02    0.3163498878E+02   -0.1517572689E+02    0.4153576279E+02    0.1777029991E+01    0    0
   16    1    6    6    0    0   -0.3762202561E+00    0.3976131201E+01    0.1692327261E+00    0.3997474194E+01    0.4315837214E-04    0    0
  -24    2    6    6    0    0   -0.2766104937E+01    0.2227175331E+02   -0.6793057173E-01    0.2249769592E+02    0.1568226218E+01    0    0
 -211    1   11   11    0    0   -0.6380008459E+00    0.4282935619E+01   -0.1882983595E+00    0.4336533070E+01    0.1395680159E+00    0    0
 -211    1   11   11    0    0   -0.2671862841E+00    0.4273019314E+01    0.1051879227E+00    0.4284930229E+01    0.1395680159E+00    0    0
 -211    1   11   11    0    0   -0.1204376340E+01    0.7586910248E+01   -0.8038909733E-01    0.7683597565E+01    0.1395680010E+00    0    0
  211    1   11   11    0    0   -0.4206593335E-01    0.6913198829E+00   -0.1238023676E-01    0.7066295147E+00    0.1395680457E+00    0    0
  211    1   11   11    0    0   -0.3455648422E+00    0.3211231470E+01    0.1853649318E+00    0.3238095284E+01    0.1395679861E+00    0    0
  111    1   11   11    0    0   -0.2689106464E+00    0.2226338148E+01   -0.7741571218E-01    0.2247910738E+01    0.1349639893E+00    0    0
  -16    1    9    9    0    0    0.1499824429E+02    0.2249036026E+02   -0.1103910637E+02    0.2919975281E+02    0.0000000000E+00    0    0
  -11    1    9    9    0    0    0.1452226043E+01    0.1685473680E+01   -0.9291213155E+00    0.2411026478E+01    0.5207865033E-03    0    0
   12    1    9    9    0    0    0.5708617210E+01    0.7460399151E+01   -0.3208097219E+01    0.9926618576E+01    0.0000000000E+00    0    0
</event>
<event>
   19 9999    1    0.9119999695E+02    0.7565275169E-02    0.1185000000E+00
   11   -1    0    0    0    0    0.0000000000E+00    0.0000000000E+00    0.8000000000E+02    0.8000000000E+02    0.5109988851E-03    0    0
  -11   -1    0    0    0    0    0.0000000000E+00    0.0000000000E+00   -0.8000000000E+02    0.8000000000E+02    0.5109988851E-03    0    0
  -24    2    1    2    0    0    0.6082614422E+01   -0.9891860962E+01    0.1703596306E+02    0.7836592102E+02    0.7560520172E+02    0    0
   24    2    1    2    0    0   -0.6082614422E+01    0.9891860962E+01   -0.1703596306E+02    0.8163407898E+02    0.7898767090E+02    0    0
   15    2    3    3    0    0   -0.2340506172E+02    0.2258330536E+02    0.8719389915E+01    0.3371925354E+02    0.1777029991E+01    0    0
  -16    1    3    3    0    0    0.2948767662E+02   -0.3247516632E+02    0.8316573143E+01    0.4464666748E+02    0.0000000000E+00    0    0
   16    1    4    4    0    0   -0.3850509262E+02   -0.6183004856E+01    0.4859328270E+01    0.3929993057E+02    0.0000000000E+00    0    0
  -15    2    4    4    0    0    0.3242247772E+02    0.1607486534E+02   -0.2189529037E+02    0.4233414459E+02    0.1777029991E+01    0    0
   16    1    5    5    0    0   -0.2835591078E+01    0.2550171375E+01    0.8599052429E+00    0.3909397364E+01    0.4863701470E-03    0    0
  -24    2    5    5    0    0   -0.2057039070E+02    0.2003402138E+02    0.7859827042E+01    0.2981118393E+02    0.1557812810E+01    0    0
  130    1   10   10    0    0   -0.9746981621E+01    0.9899270058E+01    0.3663962841E+01    0.1437607574E+02    0.4977200627E+00    0    0
 -211    1   10   10    0    0   -0.1163311720E+01    0.1133123040E+01    0.2815205157E+00    0.1654084325E+01    0.1395686269E+00    0    0
  130    1   10   10    0    0   -0.9660099983E+01    0.9001629829E+01    0.3914344311E+01    0.1378102589E+02    0.4977200925E+00    0    0
  -16    1    8    8    0    0    0.8262402534E+01    0.3513597727E+01   -0.5215091228E+01    0.1038315201E+02    0.4272460938E-03    0    0
   24    2    8    8    0    0    0.2416135025E+02    0.1256190014E+02   -0.1668106079E+02    0.3195265961E+02    0.1068873405E+01    0    0
  211    1   15   15    0    0    0.1739906788E+01    0.9153866172E+00   -0.1280478120E+01    0.2350385427E+01    0.1395679265E+00    0    0
  211    1   15   15    0    0    0.6159558296E+01    0.2891602039E+01   -0.4170021534E+01    0.7981859684E+01    0.1395678967E+00    0    0
 -211    1   15   15    0    0    0.3283479452E+01    0.1878277779E+01   -0.2203354597E+01    0.4379887581E+01    0.1395680010E+00    0    0
  111    1   15   15    0    0    0.1297840309E+02    0.6876632214E+01   -0.9027205467E+01    0.1724052429E+02    0.1349640340E+00    0    0
</event>
<event>
   22 9999    1    0.9119999695E+02    0.7565275169E-02    0.1185000000E+00
   11   -1    0    0    0    0    0.0000000000E+00    0.0000000000E+00    0.8000000000E+02    0.8000000000E+02    0.5109988851E-03    0    0
  -11   -1    0    0    0    0    0.0000000000E+00    0.0000000000E+00   -0.8000000000E+02    0.8000000000E+02    0.5109988851E-03    0    0
  -24    2    1    2    0    0    0.1017946815E+02   -0.3906840801E+01    0.2176994324E+01    0.7996194458E+02    0.7918515015E+02    0    0
   24    2    1    2    0    0   -0.1017946815E+02    0.3906840801E+01   -0.2176994324E+01    0.8003805542E+02    0.7926200867E+02    0    0
   15    2    3    3    0    0    0.1982924080E+02    0.1298628902E+02    0.3470214081E+02    0.4206232452E+02    0.1777029991E+01    0    0
  -16    1    3    3    0    0   -0.9649772644E+01   -0.1689312935E+02   -0.3252514648E+02    0.3789962006E+02    0.0000000000E+00    0    0
   16    1    4    4    0    0   -0.1255905151E+02   -0.3367794418E+02   -0.1670260620E+02    0.3963471603E+02    0.0000000000E+00    0    0
  -15    2    4    4    0    0    0.2379583836E+01    0.3758478546E+02    0.1452561092E+02    0.4040333939E+02    0.1777029991E+01    0    0
   16    1    5    5    0    0    0.2671061754E+01    0.1411162376E+01    0.4349138260E+01    0.5295371056E+01    0.2904184803E-03    0    0
  -24    2    5    5    0    0    0.1715896034E+02    0.1157563782E+02    0.3035437012E+02    0.3676860809E+02    0.1455143571E+01    0    0
 -211    1   10   10    0    0    0.4338422775E+01    0.3175859928E+01    0.7791987896E+01    0.9467975616E+01    0.1395676285E+00    0    0
 -211    1   10   10    0    0    0.6716734409E+01    0.4508882046E+01    0.1198040009E+02    0.1445662498E+02    0.1395679861E+00    0    0
  211    1   10   10    0    0    0.9652401805E+00    0.5688894391E+00    0.1657649040E+01    0.2005642891E+01    0.1395680308E+00    0    0
  111    1   10   10    0    0    0.1774835110E+01    0.1003889084E+01    0.2578187227E+01    0.3289847612E+01    0.1349640340E+00    0    0
  111    1   10   10    0    0    0.3363727331E+01    0.2318117619E+01    0.6346147060E+01    0.7548518181E+01    0.1349641383E+00    0    0
  -16    1    8    8    0    0    0.1044211388E+01    0.1474061203E+02    0.5558567524E+01    0.1578840351E+02    0.1294751128E-03    0    0
   24    2    8    8    0    0    0.1335466146E+01    0.2284565353E+02    0.8967615128E+01    0.2461652565E+02    0.1359352946E+01    0    0
  211    1   17   17    0    0    0.2529872954E+00    0.4428747654E+01    0.1714300394E+01    0.4757742405E+01    0.1395679861E+00    0    0
  211    1   17   17    0    0    0.2507435381E+00    0.2189615250E+01    0.9033602476E+00    0.2385964394E+01    0.1395679712E+00    0    0
  211    1   17   17    0    0   -0.1665922254E-01    0.3546847343E+01    0.1568756342E+01    0.3880834818E+01    0.1395679116E+00    0    0
 -211    1   17   17    0    0    0.7059714943E-01    0.4939599991E+01    0.1825766325E+01    0.5268541813E+01    0.1395680159E+00    0    0
 -211    1   17   17    0    0    0.7777974606E+00    0.7740843773E+01    0.2955431938E+01    0.8323442459E+01    0.1395678669E+00    0    0
</event>
<event>
   17 9999    1    0.9119999695E+02    0.7565275169E-02    0.1185000000E+00
   11   -1    0    0    0    0    0.0000000000E+00    0.0000000000E+00    0.8000000000E+02    0.8000000000E+02    0.5109988851E-03    0    0
  -11   -1    0    0    0    0    0.0000000000E+00    0.0000000000E+00   -0.8000000000E+02    0.8000000000E+02    0.5109988851E-03    0    0
  -24    2    1    2    0    0    0.1283003139E+02   -0.2885698318E+01    0.1532794476E+01    0.7815428925E+02    0.7702471924E+02    0    0
   24    2    1    2    0    0   -0.1283003139E+02    0.2885698318E+01   -0.1532794476E+01    0.8184571075E+02    0.8076777649E+02    0    0
   15    2    3    3    0    0   -0.2310494804E+02   -0.2398556137E+02   -0.1017568302E+02    0.3486901474E+02    0.1777029991E+01    0    0
  -16    1    3    3    0    0    0.3593497849E+02    0.2109986305E+02    0.1170847797E+02    0.4328527832E+02    0.0000000000E+00    0    0
   16    1    4    4    0    0   -0.3400774384E+02   -0.1994392204E+02    0.1974123573E+02    0.4409085083E+02    0.0000000000E+00    0    0
  -15    2    4    4    0    0    0.2117771339E+02    0.2282962036E+02   -0.2127402878E+02    0.3775485611E+02    0.1777029991E+01    0    0
   16    1    5    5    0    0   -0.1076522160E+02   -0.1150732517E+02   -0.4171342373E+01    0.1630057144E+02    0.1726334885E-03    0    0
 -323    2    5    5    0    0   -0.1234063530E+02   -0.1247918034E+02   -0.6004741669E+01    0.1856981468E+02    0.8717128634E+00    0    0
  111    1   10   10    0    0   -0.7363740444E+01   -0.7213137150E+01   -0.3609647274E+01    0.1092253590E+02    0.1349637955E+00    0    0
 -321    1   10   10    0    0   -0.4976895332E+01   -0.5266043186E+01   -0.2395094156E+01    0.7647279263E+01    0.4936670363E+00    0    0
  -16    1    8    8    0    0    0.9118339539E+01    0.9954121590E+01   -0.9452221870E+01    0.1647947693E+02    0.4184359568E-03    0    0
   24    2    8    8    0    0    0.1206020737E+02    0.1287639713E+02   -0.1182264423E+02    0.2127686691E+02    0.1296119094E+01    0    0
  111    1   14   14    0    0    0.3981737375E+01    0.4511317253E+01   -0.3745780468E+01    0.7089097500E+01    0.1349637657E+00    0    0
  111    1   14   14    0    0    0.4974895000E+01    0.5381051064E+01   -0.5169428825E+01    0.8969197273E+01    0.1349641085E+00    0    0
  321    1   14   14    0    0    0.3103575468E+01    0.2984029055E+01   -0.2907435656E+01    0.5218572617E+01    0.4936670065E+00    0    0
</event>
<event>
   19 9999    1    0.9119999695E+02    0.7565275169E-02    0.1185000000E+00
   11   -1    0    0    0    0    0.0000000000E+00    0.0000000000E+00    0.8000000000E+02    0.8000000000E+02    0.5109988851E-03    0    0
  -11   -1    0    0    0    0    0.0000000000E+00    0.0000000000E+00   -0.8000000000E+02    0.8000000000E+02    0.5109988851E-03    0    0
  -24    2    1    2    0    0   -0.1325091743E+02    0.2403778648E+02    0.2238418770E+02    0.6797050476E+02    0.5801324081E+02    0    0
   24    2    1    2    0    0    0.1325091743E+02   -0.2403778648E+02   -0.2238418770E+02    0.9202949524E+02    0.8494100189E+02    0    0
   15    2    3    3    0    0   -0.2526044083E+02   -0.6065726280E+01    0.2414662743E+02    0.3551197433E+02    0.1777029991E+01    0    0
  -16    1    3    3    0    0    0.1200952339E+02    0.3010351181E+02   -0.1762439728E+01    0.3245853043E+02    0.0000000000E+00    0    0
   16    1    4    4    0    0    0.6595628262E+01    0.1906291962E+02    0.2195272446E+02    0.2981307220E+02    0.0000000000E+00    0    0
  -15    2    4    4    0    0    0.6655289173E+01   -0.4310070419E+02   -0.4433691025E+02    0.6221642303E+02    0.1777029991E+01    0    0
   16    1    5    5    0    0   -0.2773097754E+01   -0.3957522213E+00    0.2709925890E+01    0.3897485018E+01    0.2625221387E-03    0    0
  -24    2    5    5    0    0   -0.2248833847E+02   -0.5670212746E+01    0.2143765259E+02    0.3161588860E+02    0.1454235077E+01    0    0
 -211    1   10   10    0    0   -0.2392683029E+01   -0.8611053824E+00    0.2360262394E+01    0.3472283363E+01    0.1395679712E+00    0    0
 -211    1   10   10    0    0   -0.1115109634E+02   -0.2537322044E+01    0.1115700150E+02    0.1597758102E+02    0.1395680159E+00    0    0
  211    1   10   10    0    0   -0.5335629463E+01   -0.1376063704E+01    0.4609165192E+01    0.7185149670E+01    0.1395680606E+00    0    0
  111    1   10   10    0    0   -0.3608931780E+01   -0.8957224488E+00    0.3311225414E+01    0.4980876923E+01    0.1349640191E+00    0    0
  -16    1    8    8    0    0    0.3224315941E+00   -0.3234278679E+01   -0.3378777981E+01    0.4688353539E+01    0.3770187031E-03    0    0
   24    2    8    8    0    0    0.6333119392E+01   -0.3986812210E+02   -0.4095987701E+02    0.5753051758E+02    0.1572625160E+01    0    0
  221    1   16   16    0    0    0.2801699638E+01   -0.1898788452E+02   -0.1978342819E+02    0.2756944847E+02    0.5487999916E+00    0    0
  211    1   16   16    0    0    0.3231391668E+01   -0.1978743935E+02   -0.2015767288E+02    0.2843124962E+02    0.1395679116E+00    0    0
  111    1   16   16    0    0    0.3000279069E+00   -0.1092795253E+01   -0.1018774033E+01    0.1529815078E+01    0.1349639148E+00    0    0
</event>
<event>
   19 9999    1    0.9119999695E+02    0.7565275169E-02    0.1185000000E+00
   11   -1    0    0    0    0    0.0000000000E+00    0.0000000000E+00    0.8000000000E+02    0.8000000000E+02    0.5109988851E-03    0    0
  -11   -1    0    0    0    0    0.0000000000E+00    0.0000000000E+00   -0.8000000000E+02    0.8000000000E+02    0.5109988851E-03    0    0
  -24    2    1    2    0    0    0.1963777542E+02   -0.1007894230E+02    0.7418408871E+01    0.7541734314E+02    0.7173224640E+02    0    0
   24    2    1    2    0    0   -0.1963777542E+02    0.1007894230E+02   -0.7418408871E+01    0.8458265686E+02    0.8131399536E+02    0    0
   15    2    3    3    0    0    0.4603987503E+02   -0.1423617840E+02    0.2898251772E+01    0.4831041718E+02    0.1777029991E+01    0    0
  -16    1    3    3    0    0   -0.2640209961E+02    0.4157236099E+01    0.4520156860E+01    0.2710692406E+02    0.0000000000E+00    0    0
   16    1    4    4    0    0    0.2822808838E+02   -0.1036841273E+01   -0.1902891922E+02    0.3405876923E+02    0.0000000000E+00    0    0
  -15    2    4    4    0    0   -0.4786586380E+02    0.1111578369E+02    0.1161051083E+02    0.5052388763E+02    0.1777029991E+01    0    0
   16    1    5    5    0    0    0.6282568455E+01   -0.1619235635E+01    0.4066290259E+00    0.6500610352E+01    0.4520054208E-03    0    0
  -24    2    5    5    0    0    0.3975911713E+02   -0.1261750221E+02    0.2491736889E+01    0.4181170654E+02    0.1421764970E+01    0    0
 -211    1   10   10    0    0    0.1740859604E+02   -0.5168319702E+01    0.8829206228E+00    0.1818157768E+02    0.1395678669E+00    0    0
  310    1   10   10    0    0    0.1121640873E+02   -0.3500503302E+01    0.8769614100E+00    0.1179313946E+02    0.4977200627E+00    0    0
  111    1   10   10    0    0    0.1113411713E+02   -0.3948680878E+01    0.7318550944E+00    0.1183699608E+02    0.1349639893E+00    0    0
  -16    1    8    8    0    0   -0.2644784737E+02    0.6303428173E+01    0.6235063076E+01    0.2789440536E+02    0.4443426442E-03    0    0
   24    2    8    8    0    0   -0.2141990089E+02    0.4812792301E+01    0.5375904083E+01    0.2263147163E+02    0.1143711209E+01    0    0
  111    1   15   15    0    0   -0.2395620346E+01    0.4638023973E+00    0.6594445109E+00    0.2531243086E+01    0.1349632591E+00    0    0
  111    1   15   15    0    0   -0.1118129349E+02    0.2413443565E+01    0.2660375595E+01    0.1174486446E+02    0.1349637657E+00    0    0
  111    1   15   15    0    0   -0.3441559553E+01    0.1058206916E+01    0.7674971223E+00    0.3683938265E+01    0.1349640638E+00    0    0
  211    1   15   15    0    0   -0.4401432514E+01    0.8773403764E+00    0.1288588405E+01    0.4671431541E+01    0.1395680904E+00    0    0
</event>
<event>
   23 9999    1    0.9119999695E+02    0.7565275169E-02    0.1185000000E+00
   11   -1    0    0    0    0    0.0000000000E+00    0.0000000000E+00    0.8000000000E+02    0.8000000000E+02    0.5109988851E-03    0    0
  -11   -1    0    0    0    0    0.0000000000E+00    0.0000000000E+00   -0.8000000000E+02    0.8000000000E+02    0.5109988851E-03    0    0
  -24    2    1    2    0    0    0.1355843258E+02   -0.5211021900E+01   -0.6596097469E+01    0.8279715729E+02    0.8124576569E+02    0    0
   24    2    1    2    0    0   -0.1355843258E+02    0.5211021900E+01    0.6596211433E+01    0.7720272827E+02    0.7553652191E+02    0    0
   22    1    1    2    0    0   -0.1307105624E-07    0.9384688582E-08   -0.1137988293E-03    0.1137988365E-03    0.0000000000E+00    0    0
   15    2    3    3    0    0    0.1850386500E+01   -0.1759106636E+02   -0.4084372711E+02    0.4454478073E+02    0.1777029991E+01    0    0
  -16    1    3    3    0    0    0.1170804596E+02    0.1238004494E+02    0.3424763107E+02    0.3825237274E+02    0.0000000000E+00    0    0
   16    1    4    4    0    0    0.5668987632E+00   -0.8261688232E+01    0.3870663452E+02    0.3958257675E+02    0.0000000000E+00    0    0
  -15    2    4    4    0    0   -0.1412533092E+02    0.1347270966E+02   -0.3211042404E+02    0.3762015533E+02    0.1777029991E+01    0    0
   16    1    6    6    0    0    0.4193237722E+00   -0.1454964161E+01   -0.3005562544E+01    0.3365436077E+01    0.2024307178E-03    0    0
  -24    2    6    6    0    0    0.1431135535E+01   -0.1613679504E+02   -0.3783977127E+02    0.4118109894E+02    0.1261002779E+01    0    0
 -211    1   11   11    0    0    0.9827651978E+00   -0.8169834137E+01   -0.1891217613E+02    0.2062527466E+02    0.1395678222E+00    0    0
 -211    1   11   11    0    0   -0.7821725309E-01   -0.1100006938E+01   -0.2462526798E+01    0.2701786518E+01    0.1395677924E+00    0    0
  211    1   11   11    0    0    0.1310534775E+00   -0.3455682278E+01   -0.8647261620E+01    0.9314157486E+01    0.1395679265E+00    0    0
  111    1   11   11    0    0    0.3955341578E+00   -0.3411271572E+01   -0.7817810059E+01    0.8539882660E+01    0.1349639595E+00    0    0
  -16    1    9    9    0    0   -0.3581269264E+01    0.3210427761E+01   -0.7948829174E+01    0.9290652275E+01    0.4825252836E-04    0    0
   24    2    9    9    0    0   -0.1054461765E+02    0.1026281261E+02   -0.2416285706E+02    0.2833098221E+02    0.1512147546E+01    0    0
  211    1   17   17    0    0   -0.1411092997E+01    0.1556432009E+01   -0.3278359890E+01    0.3896252871E+01    0.1395680010E+00    0    0
  211    1   17   17    0    0   -0.1602584362E+01    0.1371744752E+01   -0.3377487421E+01    0.3984577894E+01    0.1395680010E+00    0    0
 -211    1   17   17    0    0   -0.7896212935E+00    0.1097551942E+01   -0.2248558521E+01    0.2627473354E+01    0.1395680010E+00    0    0
  111    1   17   17    0    0   -0.3301632404E+01    0.3168715239E+01   -0.8048978806E+01    0.9259903908E+01    0.1349640936E+00    0    0
  111    1   17   17    0    0   -0.2009390593E+01    0.1840413451E+01   -0.4379530430E+01    0.5159774780E+01    0.1349640042E+00    0    0
  111    1   17   17    0    0   -0.1430295825E+01    0.1227955103E+01   -0.2829942465E+01    0.3403000116E+01    0.1349640042E+00    0    0
</event>
<event>
   21 9999    1    0.9119999695E+02    0.7565275169E-02    0.1185000000E+00
   11   -1    0    0    0    0    0.0000000000E+00    0.0000000000E+00    0.8000000000E+02    0.8000000000E+02    0.5109988851E-03    0    0
  -11   -1    0    0    0    0    0.0000000000E+00    0.0000000000E+00   -0.8000000000E+02    0.8000000000E+02    0.5109988851E-03    0    0
  -24    2    1    2    0    0    0.1491541481E+02   -0.1334435558E+02   -0.2184519321E+00    0.7880493927E+02    0.7622092438E+02    0    0
   24    2    1    2    0    0   -0.1436053181E+02    0.1369426632E+02   -0.8050111532E+00    0.7997927094E+02    0.7747436523E+02    0    0
   22    1    1    2    0    0   -0.5548823476E+00   -0.3499112427E+00    0.1022585869E+01    0.1214913249E+01    0.0000000000E+00    0    0
   22    1    1    2    0    0    0.5494741018E-07    0.7624451825E-07    0.8772700676E-03    0.8772700676E-03    0.0000000000E+00    0    0
   15    2    3    3    0    0    0.3074132156E+02    0.2159400177E+02    0.1037294197E+02    0.3901391602E+02    0.1777029991E+01    0    0
  -16    1    3    3    0    0   -0.1582590675E+02   -0.3493835831E+02   -0.1059139442E+02    0.3979102707E+02    0.0000000000E+00    0    0
   16    1    4    4    0    0   -0.1561746311E+02    0.4483770752E+02    0.6483482838E+01    0.4792035675E+02    0.0000000000E+00    0    0
  -15    2    4    4    0    0    0.1256930947E+01   -0.3114344025E+02   -0.7288494110E+01    0.3205891037E+02    0.1777029991E+01    0    0
   16    1    7    7    0    0    0.4978314400E+01    0.3714444160E+01    0.2004366159E+01    0.6526729107E+01    0.1495049946E-03    0    0
  -24    2    7    7    0    0    0.2576421738E+02    0.1788040924E+02    0.8368984222E+01    0.3248872375E+02    0.1404718876E+01    0    0
 -211    1   12   12    0    0    0.1741422653E+01    0.1314086318E+01    0.5141955614E+00    0.2245718718E+01    0.1395678967E+00    0    0
 -211    1   12   12    0    0    0.1178367901E+02    0.8082665443E+01    0.3358387470E+01    0.1467933273E+02    0.1395679563E+00    0    0
  211    1   12   12    0    0    0.4030947208E+01    0.2795448780E+01    0.1288347721E+01    0.5073695660E+01    0.1395679414E+00    0    0
  111    1   12   12    0    0    0.8208168983E+01    0.5688209057E+01    0.3208054066E+01    0.1048997593E+02    0.1349636763E+00    0    0
  -16    1   10   10    0    0   -0.6347453594E-01   -0.3226575136E+01   -0.9092750549E+00    0.3352849245E+01    0.6473755930E-03    0    0
   24    2   10   10    0    0    0.1320454955E+01   -0.2791809082E+02   -0.6379505634E+01    0.2870732117E+02    0.1499630451E+01    0    0
  310    1   18   18    0    0    0.6761606932E+00   -0.1254340744E+02   -0.2601982594E+01    0.1283792496E+02    0.4977200627E+00    0    0
  211    1   18   18    0    0    0.4340502322E+00   -0.1024007130E+02   -0.2490023136E+01    0.1054832458E+02    0.1395679563E+00    0    0
  310    1   18   18    0    0    0.2102440298E+00   -0.5134611130E+01   -0.1287500143E+01    0.5321073055E+01    0.4977199733E+00    0    0
</event>
<event>
   14 9999    1    0.9119999695E+02    0.7565275169E-02    0.1185000000E+00
   11   -1    0    0    0    0    0.0000000000E+00    0.0000000000E+00    0.8000000000E+02    0.8000000000E+02    0.5109988851E-03    0    0
  -11   -1    0    0    0    0    0.0000000000E+00    0.0000000000E+00   -0.8000000000E+02    0.8000000000E+02    0.5109988851E-03    0    0
  -24    2    1    2    0    0    0.7566126347E+01   -0.1118972659E+01    0.3648100853E+01    0.8054814911E+02    0.8010117340E+02    0    0
   24    2    1    2    0    0   -0.7566126347E+01    0.1118972659E+01   -0.3648100853E+01    0.7945185089E+02    0.7899866486E+02    0    0
   15    2    3    3    0    0    0.3560211182E+02   -0.2473843193E+02   -0.2103267670E+01    0.4344055557E+02    0.1777029991E+01    0    0
  -16    1    3    3    0    0   -0.2803598595E+02    0.2361945915E+02    0.5751368523E+01    0.3710759354E+02    0.0000000000E+00    0    0
   16    1    4    4    0    0   -0.2049386024E+02   -0.3048550606E+02    0.1594326591E+02    0.4004437637E+02    0.0000000000E+00    0    0
  -15    2    4    4    0    0    0.1292773342E+02    0.3160447884E+02   -0.1959136772E+02    0.3940747070E+02    0.1777029991E+01    0    0
   16    1    5    5    0    0    0.1904644394E+02   -0.1342252731E+02   -0.1268305421E+01    0.2333537674E+02    0.9650505672E-04    0    0
  -24    2    5    5    0    0    0.1655707169E+02   -0.1131687832E+02   -0.8350450397E+00    0.2010688972E+02    0.1175323248E+01    0    0
 -321    1   10   10    0    0    0.4237761974E+01   -0.2868265152E+01   -0.3462941051E+00    0.5152591228E+01    0.4936670363E+00    0    0
  310    1   10   10    0    0    0.1231930923E+02   -0.8448612213E+01   -0.4887509048E+00    0.1495429802E+02    0.4977200329E+00    0    0
  -16    1    8    8    0    0    0.7323371887E+01    0.1844480705E+02   -0.1049768066E+02    0.2245092392E+02    0.3452669771E-03    0    0
  321    1    8    8    0    0    0.5604870796E+01    0.1316091633E+02   -0.9094457626E+01    0.1695810127E+02    0.4936670065E+00    0    0
</event>
<event>
   25 9999    1    0.9119999695E+02    0.7565275169E-02    0.1185000000E+00
   11   -1    0    0    0    0    0.0000000000E+00    0.0000000000E+00    0.8000000000E+02    0.8000000000E+02    0.5109988851E-03    0    0
  -11   -1    0    0    0    0    0.0000000000E+00    0.0000000000E+00   -0.8000000000E+02    0.8000000000E+02    0.5109988851E-03    0    0
  -24    2    1    2    0    0   -0.4585116863E+01   -0.9997349739E+01   -0.1161450005E+02    0.8468466949E+02    0.8316024780E+02    0    0
   24    2    1    2    0    0    0.4576707363E+01    0.9998085022E+01   -0.6607932568E+01    0.5641279602E+02    0.5493478394E+02    0    0
   22    1    1    2    0    0    0.1005907834E-03    0.1794046111E-03    0.1726301003E+02    0.1726301003E+02    0.0000000000E+00    0    0
   22    1    1    2    0    0   -0.9014590432E-05   -0.2681317710E-04    0.1299401045E+01    0.1299401045E+01    0.0000000000E+00    0    0
   22    1    1    2    0    0    0.7826698013E-02   -0.2891754557E-03   -0.2280974537E+00    0.2282318771E+00    0.0000000000E+00    0    0
   22    1    1    2    0    0   -0.1123240054E-05   -0.1167627147E-05   -0.6411616504E-01    0.6411616504E-01    0.0000000000E+00    0    0
   22    1    1    2    0    0    0.4830434627E-03   -0.6723395782E-03   -0.3984063864E-01    0.3984924033E-01    0.0000000000E+00    0    0
   22    1    1    2    0    0    0.9211882571E-05    0.7466565148E-04   -0.7924533449E-02    0.7924890146E-02    0.0000000000E+00    0    0
   15    2    3    3    0    0    0.7239543796E+00   -0.8860245705E+01    0.3581543732E+02    0.3694498062E+02    0.1777029991E+01    0    0
  -16    1    3    3    0    0   -0.5309071064E+01   -0.1137104154E+01   -0.4742993927E+02    0.4773969269E+02    0.0000000000E+00    0    0
   16    1    4    4    0    0    0.2808946037E+02   -0.2012152910E+01   -0.9666604042E+01    0.2977431297E+02    0.0000000000E+00    0    0
  -15    2    4    4    0    0   -0.2351275253E+02    0.1201023769E+02    0.3058671713E+01    0.2663848114E+02    0.1777029991E+01    0    0
   16    1   11   11    0    0   -0.2717243731E+00   -0.1566137314E+01    0.6555798054E+01    0.6745747566E+01    0.1220703125E-03    0    0
  -24    2   11   11    0    0    0.9957072735E+00   -0.7294456959E+01    0.2926104927E+02    0.3020068550E+02    0.1293010235E+01    0    0
  111    1   16   16    0    0    0.2791844308E+00   -0.8638836741E+00    0.3367103577E+01    0.3489962816E+01    0.1349641830E+00    0    0
  111    1   16   16    0    0    0.3751000762E+00   -0.8923316598E+00    0.3447862864E+01    0.3583703279E+01    0.1349636018E+00    0    0
 -321    1   16   16    0    0    0.3414228559E+00   -0.5538242340E+01    0.2244608688E+02    0.2312702370E+02    0.4936669767E+00    0    0
  -16    1   14   14    0    0   -0.6910570145E+01    0.3467515230E+01    0.9349419475E+00    0.7788052559E+01    0.5929369945E-03    0    0
   24    2   14   14    0    0   -0.1660310745E+02    0.8543194771E+01    0.2123850107E+01    0.1885147667E+02    0.1489316702E+01    0    0
  211    1   21   21    0    0   -0.5214010239E+01    0.2604440928E+01    0.1385507584E+00    0.5831611156E+01    0.1395678520E+00    0    0
  211    1   21   21    0    0   -0.4166996002E+01    0.2020048380E+01    0.5969298482E+00    0.4671215534E+01    0.1395677924E+00    0    0
 -211    1   21   21    0    0   -0.6107718945E+01    0.3185477495E+01    0.1224692702E+01    0.6997917175E+01    0.1395677924E+00    0    0
  111    1   21   21    0    0   -0.1114383817E+01    0.7332289219E+00    0.1636770368E+00    0.1350733757E+01    0.1349640340E+00    0    0
</event>
<event>
   22 9999    1    0.9119999695E+02    0.7565275169E-02    0.1185000000E+00
   11   -1    0    0    0    0    0.0000000000E+00    0.0000000000E+00    0.8000000000E+02    0.8000000000E+02    0.5109988851E-03    0    0
  -11   -1    0    0    0    0    0.0000000000E+00    0.0000000000E+00   -0.8000000000E+02    0.8000000000E+02    0.5109988851E-03    0    0
  -24    2    1    2    0    0   -0.5461204052E+01    0.8182543755E+01   -0.2120110893E+02    0.6467610168E+02    0.6030532455E+02    0    0
   24    2    1    2    0    0    0.5400777340E+01   -0.8254046440E+01    0.7131155491E+01    0.8114082336E+02    0.8022270966E+02    0    0
   22    1    1    2    0    0    0.5279592052E-01    0.4110625014E-01    0.1412208748E+02    0.1412224579E+02    0.0000000000E+00    0    0
   22    1    1    2    0    0    0.7631035987E-02    0.3039722517E-01   -0.5213306472E-01    0.6082828715E-01    0.0000000000E+00    0    0
   15    2    3    3    0    0   -0.2870741844E+02    0.1982790565E+02   -0.9776121140E+01    0.3627660370E+02    0.1777029991E+01    0    0
  -16    1    3    3    0    0    0.2324621391E+02   -0.1164536285E+02   -0.1142498875E+02    0.2839949417E+02    0.0000000000E+00    0    0
   16    1    4    4    0    0    0.2919874763E+02    0.2151721001E+02   -0.1232988739E+02    0.3830904770E+02    0.0000000000E+00    0    0
  -15    2    4    4    0    0   -0.2379796982E+02   -0.2977125549E+02    0.1946104240E+02    0.4283177567E+02    0.1777029991E+01    0    0
   16    1    7    7    0    0   -0.6103373766E+00    0.4547173083E+00   -0.3044604063E+00    0.8197412491E+00    0.2157918607E-04    0    0
  -24    2    7    7    0    0   -0.2809820938E+02    0.1937396812E+02   -0.9472044945E+01    0.3545829010E+02    0.1646419168E+01    0    0
 -211    1   12   12    0    0   -0.5239762783E+01    0.3492458344E+01   -0.1778485060E+01    0.6544835091E+01    0.1395679712E+00    0    0
 -211    1   12   12    0    0   -0.7656974792E+01    0.5194162846E+01   -0.2512757063E+01    0.9588640213E+01    0.1395679265E+00    0    0
  211    1   12   12    0    0   -0.3179470301E+01    0.2507521391E+01   -0.1375601053E+01    0.4278837681E+01    0.1395679265E+00    0    0
  111    1   12   12    0    0   -0.4153519154E+01    0.3054746151E+01   -0.1525842667E+01    0.5378624916E+01    0.1349639893E+00    0    0
  111    1   12   12    0    0   -0.3687185287E+01    0.2447674751E+01   -0.1105477214E+01    0.4563632488E+01    0.1349639893E+00    0    0
  111    1   12   12    0    0   -0.4181297302E+01    0.2677405119E+01   -0.1173881769E+01    0.5103720188E+01    0.1349639446E+00    0    0
  -16    1   10   10    0    0   -0.6242161274E+01   -0.8210116386E+01    0.4758409977E+01    0.1135839176E+02    0.1726334885E-03    0    0
   24    2   10   10    0    0   -0.1755674744E+02   -0.2156231308E+02    0.1470339870E+02    0.3147507286E+02    0.1147859097E+01    0    0
  321    1   20   20    0    0   -0.1102724648E+02   -0.1370868397E+02    0.9049131393E+01    0.1979036903E+02    0.4936669767E+00    0    0
  310    1   20   20    0    0   -0.6529500008E+01   -0.7853629112E+01    0.5654267788E+01    0.1168470478E+02    0.4977201521E+00    0    0
</event>
<event>
   19 9999    1    0.9119999695E+02    0.7565275169E-02    0.1185000000E+00
   11   -1    0    0    0    0    0.0000000000E+00    0.0000000000E+00    0.8000000000E+02    0.8000000000E+02    0.5109988851E-03    0    0
  -11   -1    0    0    0    0    0.0000000000E+00    0.0000000000E+00   -0.8000000000E+02    0.8000000000E+02    0.5109988851E-03    0    0
  -24    2    1    2    0    0    0.1532362938E+02   -0.1373954105E+02   -0.1772277832E+02    0.7444405365E+02    0.6931256104E+02    0    0
   24    2    1    2    0    0   -0.1532239819E+02    0.1373590755E+02    0.1600515175E+02    0.8383653259E+02    0.7968029022E+02    0    0
   22    1    1    2    0    0   -0.6153949071E-03    0.3248457098E-02    0.1718369722E+01    0.1718372941E+01    0.0000000000E+00    0    0
   22    1    1    2    0    0   -0.6159606273E-03    0.3851111105E-03   -0.7431914564E-03    0.1039255294E-02    0.0000000000E+00    0    0
   15    2    3    3    0    0   -0.5292891979E+01    0.1315864468E+02   -0.3397411728E+02    0.3685869217E+02    0.1777029991E+01    0    0
  -16    1    3    3    0    0    0.2061652184E+02   -0.2689818573E+02    0.1625133896E+02    0.3758536148E+02    0.0000000000E+00    0    0
   16    1    4    4    0    0   -0.4226072693E+02    0.2523087311E+02    0.2195982742E+02    0.5389619827E+02    0.0000000000E+00    0    0
  -15    2    4    4    0    0    0.2693832970E+02   -0.1149496555E+02   -0.5954676151E+01    0.2994033813E+02    0.1777029991E+01    0    0
   16    1    7    7    0    0   -0.4758267105E+00    0.2020379782E+01   -0.5559741020E+01    0.5934565067E+01    0.8631674427E-04    0    0
  -24    2    7    7    0    0   -0.4817273617E+01    0.1113878250E+02   -0.2841571426E+02    0.3092557716E+02    0.1288374424E+01    0    0
 -321    1   12   12    0    0   -0.2489669085E+01    0.5569931030E+01   -0.1400144863E+02    0.1528093147E+02    0.4936669767E+00    0    0
 -211    1   12   12    0    0   -0.4011889100E+00    0.8386567831E+00   -0.2575227022E+01    0.2741454124E+01    0.1395684779E+00    0    0
  321    1   12   12    0    0   -0.1926415205E+01    0.4730194092E+01   -0.1183903599E+02    0.1290318966E+02    0.4936670065E+00    0    0
  -16    1   10   10    0    0    0.1466286469E+02   -0.6098884106E+01   -0.2915864706E+01    0.1614615250E+02    0.8631674427E-04    0    0
   24    2   10   10    0    0    0.1227652550E+02   -0.5396533966E+01   -0.3039045572E+01    0.1379536438E+02    0.1113824606E+01    0    0
  321    1   17   17    0    0    0.6739562511E+01   -0.2773955345E+01   -0.1466472149E+01    0.7450555325E+01    0.4936670065E+00    0    0
  310    1   17   17    0    0    0.5536961555E+01   -0.2622577667E+01   -0.1572573066E+01    0.6344806671E+01    0.4977200329E+00    0    0
</event>
<event>
   19 9999    1    0.9119999695E+02    0.7565275169E-02    0.1185000000E+00
   11   -1    0    0    0    0    0.0000000000E+00    0.0000000000E+00    0.8000000000E+02    0.8000000000E+02    0.5109988851E-03    0    0
  -11   -1    0    0    0    0    0.0000000000E+00    0.0000000000E+00   -0.8000000000E+02    0.8000000000E+02    0.5109988851E-03    0    0
  -24    2    1    2    0    0   -0.3270149612E+02    0.2147579384E+02   -0.2910865784E+01    0.7041023254E+02    0.5846820068E+02    0    0
   24    2    1    2    0    0    0.3270149612E+02   -0.2147579384E+02    0.2910865784E+01    0.8958976746E+02    0.8054349518E+02    0    0
   15    2    3    3    0    0   -0.2348020363E+02    0.2197128105E+02    0.2515414429E+02    0.4086497498E+02    0.1777029991E+01    0    0
  -16    1    3    3    0    0   -0.9221293449E+01   -0.4954872429E+00   -0.2806501007E+02    0.2954526329E+02    0.0000000000E+00    0    0
   16    1    4    4    0    0    0.1308435917E+02    0.2094313622E+02    0.2732622337E+02    0.3683120728E+02    0.0000000000E+00    0    0
  -15    2    4    4    0    0    0.1961713791E+02   -0.4241893005E+02   -0.2441535759E+02    0.5275855637E+02    0.1777029991E+01    0    0
   16    1    5    5    0    0   -0.3965612411E+01    0.3330817223E+01    0.4125487328E+01    0.6621183395E+01    0.4766998172E-03    0    0
  -24    2    5    5    0    0   -0.1951551628E+02    0.1864132881E+02    0.2102964783E+02    0.3424539948E+02    0.1465164185E+01    0    0
  221    1   10   10    0    0   -0.1375253105E+02    0.1327758217E+02    0.1476696682E+02    0.2416176224E+02    0.5487999320E+00    0    0
 -211    1   10   10    0    0   -0.2247018814E+01    0.2290544510E+01    0.2903462887E+01    0.4329580307E+01    0.1395679861E+00    0    0
  111    1   10   10    0    0   -0.3515964985E+01    0.3073201895E+01    0.3359216690E+01    0.5754053593E+01    0.1349640787E+00    0    0
  -16    1    8    8    0    0    0.2966594994E+00   -0.8835904598E+00   -0.6532924175E+00    0.1138213515E+01    0.3762459673E-03    0    0
   24    2    8    8    0    0    0.1932125092E+02   -0.4153701019E+02   -0.2376302528E+02    0.5162241745E+02    0.1248556733E+01    0    0
  211    1   15   15    0    0    0.1327788353E+01   -0.3171807528E+01   -0.1737469435E+01    0.3855082989E+01    0.1395682096E+00    0    0
  211    1   15   15    0    0    0.1510486960E+01   -0.3436920404E+01   -0.1990390062E+01    0.4251484871E+01    0.1395683289E+00    0    0
 -211    1   15   15    0    0    0.6488898754E+01   -0.1307707977E+02   -0.7758515358E+01    0.1653269005E+02    0.1395678818E+00    0    0
  111    1   15   15    0    0    0.9994073868E+01   -0.2185119438E+02   -0.1227664566E+02    0.2698315048E+02    0.1349641234E+00    0    0
</event>
<event>
   19 9999    1    0.9119999695E+02    0.7565275169E-02    0.1185000000E+00
   11   -1    0    0    0    0    0.0000000000E+00    0.0000000000E+00    0.8000000000E+02    0.8000000000E+02    0.5109988851E-03    0    0
  -11   -1    0    0    0    0    0.0000000000E+00    0.0000000000E+00   -0.8000000000E+02    0.8000000000E+02    0.5109988851E-03    0    0
  -24    2    1    2    0    0   -0.6744471073E+01    0.1045638752E+02    0.2000259638E+01    0.7868002319E+02    0.7766415405E+02    0    0
   24    2    1    2    0    0    0.6744934559E+01   -0.1045619965E+02   -0.2233914852E+01    0.8108442688E+02    0.8009287262E+02    0    0
   22    1    1    2    0    0    0.1775178862E-04    0.8160968719E-05    0.2345291972E+00    0.2345291972E+00    0.0000000000E+00    0    0
   22    1    1    2    0    0   -0.4809823295E-03   -0.1955113548E-03   -0.8737850003E-03    0.1016399940E-02    0.0000000000E+00    0    0
   15    2    3    3    0    0   -0.3048437500E+02   -0.7524165154E+01    0.2570422745E+02    0.4061742783E+02    0.1777029991E+01    0    0
  -16    1    3    3    0    0    0.2373990440E+02    0.1798055267E+02   -0.2370396805E+02    0.3806259918E+02    0.0000000000E+00    0    0
   16    1    4    4    0    0    0.2501676798E+01   -0.4550669861E+02   -0.3509366512E+01    0.4571032333E+02    0.0000000000E+00    0    0
  -15    2    4    4    0    0    0.4243257523E+01    0.3505049896E+02    0.1275451541E+01    0.3537410736E+02    0.1777029991E+01    0    0
   16    1    7    7    0    0   -0.7078829288E+01   -0.1352405071E+01    0.5725740910E+01    0.9204505920E+01    0.3104704374E-03    0    0
*****    2    7    7    0    0   -0.2340674591E+02   -0.6172056198E+01    0.1997949791E+02    0.3141451836E+02    0.1312110901E+01    0    0
 -211    1   12   12    0    0   -0.1013277435E+02   -0.2826115131E+01    0.8832053185E+01    0.1373625469E+02    0.1395679861E+00    0    0
 -211    1   12   12    0    0   -0.3732720613E+01   -0.1225231647E+01    0.3568444967E+01    0.5309206486E+01    0.1395686120E+00    0    0
  211    1   12   12    0    0   -0.9541252136E+01   -0.2120709419E+01    0.7578999519E+01    0.1236905861E+02    0.1395680606E+00    0    0
  -16    1   10   10    0    0    0.2317113161E+01    0.2163707733E+02    0.3645352423E+00    0.2176384735E+02    0.1220703125E-03    0    0
  323    2   10   10    0    0    0.1926311374E+01    0.1341480064E+02    0.9109665155E+00    0.1361165047E+02    0.8829599023E+00    0    0
  211    1   17   17    0    0    0.1065909982E+01    0.7690693855E+01    0.3225291371E+00    0.7772157669E+01    0.1395680159E+00    0    0
  310    1   17   17    0    0    0.8604014516E+00    0.5724107742E+01    0.5884374380E+00    0.5839493275E+01    0.4977199137E+00    0    0
</event>
<event>
   18 9999    1    0.9119999695E+02    0.7565275169E-02    0.1185000000E+00
   11   -1    0    0    0    0    0.0000000000E+00    0.0000000000E+00    0.8000000000E+02    0.8000000000E+02    0.5109988851E-03    0    0
  -11   -1    0    0    0    0    0.0000000000E+00    0.0000000000E+00   -0.8000000000E+02    0.8000000000E+02    0.5109988851E-03    0    0
  -24    2    1    2    0    0    0.3372098160E+02   -0.2409982383E+00    0.1094740868E+02    0.8813712311E+02    0.8069165802E+02    0    0
   24    2    1    2    0    0   -0.3372099304E+02    0.2409986854E+00   -0.1113574505E+02    0.7167454529E+02    0.6225810623E+02    0    0
   22    1    1    2    0    0    0.1148393312E-04   -0.4424757662E-06    0.1883363277E+00    0.1883363277E+00    0.0000000000E+00    0    0
   15    2    3    3    0    0    0.8200583458E+01   -0.3371738815E+02    0.2603783607E+02    0.4341933441E+02    0.1777029991E+01    0    0
  -16    1    3    3    0    0    0.2552039719E+02    0.3347639084E+02   -0.1509042835E+02    0.4471778870E+02    0.0000000000E+00    0    0
   16    1    4    4    0    0   -0.3894106674E+02   -0.1848442078E+02    0.8556735039E+01    0.4394654083E+02    0.0000000000E+00    0    0
  -15    2    4    4    0    0    0.5220074654E+01    0.1872542000E+02   -0.1969248009E+02    0.2772800255E+02    0.1777029991E+01    0    0
   16    1    6    6    0    0    0.8178903461E+00   -0.3872458696E+01    0.2643053293E+01    0.4759265900E+01    0.3112194536E-03    0    0
  -24    2    6    6    0    0    0.7383016586E+01   -0.2984625816E+02    0.2339580917E+02    0.3866177750E+02    0.1435704827E+01    0    0
  111    1   11   11    0    0    0.8864842653E+00   -0.5184507847E+01    0.3657520056E+01    0.6407857895E+01    0.1349640638E+00    0    0
  111    1   11   11    0    0    0.4034313679E+01   -0.1511468697E+02    0.1196796131E+02    0.1969720268E+02    0.1349640042E+00    0    0
  111    1   11   11    0    0    0.1251787901E+01   -0.5031338215E+01    0.4102090836E+01    0.6612617016E+01    0.1349639744E+00    0    0
 -211    1   11   11    0    0    0.1210430861E+01   -0.4515726089E+01    0.3668238401E+01    0.5944104671E+01    0.1395679861E+00    0    0
  -16    1    9    9    0    0    0.1309236050E+01    0.2892486334E+01   -0.3246933222E+01    0.4541272163E+01    0.6823938020E-04    0    0
  -11    1    9    9    0    0    0.3812992811E+01    0.1568071651E+02   -0.1609305000E+02    0.2279056931E+02    0.5183498724E-03    0    0
   12    1    9    9    0    0    0.9805148840E-01    0.1529541910E+00   -0.3532707989E+00    0.3972522318E+00    0.6103515625E-04    0    0
</event>
<event>
   15 9999    1    0.9119999695E+02    0.7565275169E-02    0.1185000000E+00
   11   -1    0    0    0    0    0.0000000000E+00    0.0000000000E+00    0.8000000000E+02    0.8000000000E+02    0.5109988851E-03    0    0
  -11   -1    0    0    0    0    0.0000000000E+00    0.0000000000E+00   -0.8000000000E+02    0.8000000000E+02    0.5109988851E-03    0    0
  -24    2    1    2    0    0    0.1272755623E+02   -0.2559954405E+01   -0.9459956884E+00    0.7879701996E+02    0.7771442413E+02    0    0
   24    2    1    2    0    0   -0.1272755623E+02    0.2559954405E+01    0.9459956884E+00    0.8120298004E+02    0.8015288544E+02    0    0
   15    2    3    3    0    0   -0.2289159012E+02   -0.2193229866E+02    0.1513895607E+02    0.3517664719E+02    0.1777029991E+01    0    0
  -16    1    3    3    0    0    0.3561914444E+02    0.1937234497E+02   -0.1608495140E+02    0.4362037277E+02    0.0000000000E+00    0    0
   16    1    4    4    0    0   -0.4576749420E+02    0.1087158585E+02    0.1818980932E+01    0.4707614899E+02    0.0000000000E+00    0    0
  -15    2    4    4    0    0    0.3303993988E+02   -0.8311631203E+01   -0.8729851842E+00    0.3412683105E+02    0.1777029991E+01    0    0
   16    1    5    5    0    0   -0.4057327747E+01   -0.4374095440E+01    0.2533592939E+01    0.6481798649E+01    0.2729575208E-03    0    0
  -24    2    5    5    0    0   -0.1883516312E+02   -0.1755906677E+02    0.1260595894E+02    0.2869623184E+02    0.1216286540E+01    0    0
 -211    1   10   10    0    0   -0.2924319506E+01   -0.2789858818E+01    0.2297391415E+01    0.4651069164E+01    0.1395684183E+00    0    0
  111    1   10   10    0    0   -0.1485302448E+02   -0.1373400307E+02    0.9388373375E+01    0.2230235291E+02    0.1349642277E+00    0    0
   22    1   10   10    0    0   -0.1057818532E+01   -0.1035203218E+01    0.9201936722E+00    0.1742808700E+01    0.6103515625E-04    0    0
  -16    1    8    8    0    0    0.5590589523E+01   -0.1907695532E+01   -0.5683782101E+00    0.5934395313E+01    0.3452669771E-03    0    0
  321    1    8    8    0    0    0.2745065117E+02   -0.6404263020E+01   -0.3046413958E+00    0.2819378281E+02    0.4936669767E+00    0    0
</event>
<event>
   14 9999    1    0.9119999695E+02    0.7565275169E-02    0.1185000000E+00
   11   -1    0    0    0    0    0.0000000000E+00    0.0000000000E+00    0.8000000000E+02    0.8000000000E+02    0.5109988851E-03    0    0
  -11   -1    0    0    0    0    0.0000000000E+00    0.0000000000E+00   -0.8000000000E+02    0.8000000000E+02    0.5109988851E-03    0    0
  -24    2    1    2    0    0    0.1005897141E+02   -0.1225829697E+02    0.3377159119E+01    0.7974156189E+02    0.7807601166E+02    0    0
   24    2    1    2    0    0   -0.1005897141E+02    0.1225829697E+02   -0.3377159119E+01    0.8025843811E+02    0.7860383606E+02    0    0
   15    2    3    3    0    0   -0.6529670238E+01   -0.3839735794E+02    0.2082774162E+02    0.4420346451E+02    0.1777029991E+01    0    0
  -16    1    3    3    0    0    0.1658864212E+02    0.2613906288E+02   -0.1745058250E+02    0.3553809738E+02    0.0000000000E+00    0    0
   16    1    4    4    0    0   -0.2396828651E+02   -0.2957773209E+01    0.3150776100E+02    0.3969844055E+02    0.0000000000E+00    0    0
  -15    2    4    4    0    0    0.1390931511E+02    0.1521607018E+02   -0.3488491821E+02    0.4055999756E+02    0.1777029991E+01    0    0
   16    1    5    5    0    0   -0.2479936361E+01   -0.1251777649E+02    0.6516835690E+01    0.1432878113E+02    0.8631674427E-04    0    0
   11    1    5    5    0    0   -0.3384439945E+01   -0.1893953323E+02    0.1090921497E+02    0.2211721802E+02    0.4882812500E-03    0    0
  -12    1    5    5    0    0   -0.6655513048E+00   -0.6941560268E+01    0.3402511120E+01    0.7759207726E+01    0.2589502255E-03    0    0
  -16    1    8    8    0    0    0.8836686134E+01    0.9499022484E+01   -0.2073978424E+02    0.2446338272E+02    0.0000000000E+00    0    0
  -13    1    8    8    0    0    0.3825168133E+01    0.3944175005E+01   -0.9618296623E+01    0.1107750988E+02    0.1056589708E+00    0    0
   14    1    8    8    0    0    0.1248008490E+01    0.1773471951E+01   -0.4528213501E+01    0.5020701885E+01    0.2441406250E-03    0    0
</event>
<event>
   19 9999    1    0.9119999695E+02    0.7565275169E-02    0.1185000000E+00
   11   -1    0    0    0    0    0.0000000000E+00    0.0000000000E+00    0.8000000000E+02    0.8000000000E+02    0.5109988851E-03    0    0
  -11   -1    0    0    0    0    0.0000000000E+00    0.0000000000E+00   -0.8000000000E+02    0.8000000000E+02    0.5109988851E-03    0    0
  -24    2    1    2    0    0   -0.1124741650E+02   -0.3626229858E+02   -0.5354312897E+01    0.8417778778E+02    0.7493845367E+02    0    0
   24    2    1    2    0    0    0.1127832222E+02    0.3630543137E+02    0.5317435265E+01    0.7565212250E+02    0.6518959808E+02    0    0
   22    1    1    2    0    0   -0.2865586802E-01   -0.4245007411E-01    0.9712161124E-01    0.1097987890E+00    0.0000000000E+00    0    0
   22    1    1    2    0    0   -0.2250273479E-02   -0.6842744187E-03   -0.6024372950E-01    0.6028962508E-01    0.0000000000E+00    0    0
   15    2    3    3    0    0   -0.2025737762E+02   -0.3846347046E+02    0.2653881836E+02    0.5096338654E+02    0.1777029991E+01    0    0
  -16    1    3    3    0    0    0.9009962082E+01    0.2201171637E+01   -0.3189313126E+02    0.3321440125E+02    0.0000000000E+00    0    0
   16    1    4    4    0    0   -0.9145131111E+01    0.3290205002E+02    0.2852827644E+02    0.4449765015E+02    0.0000000000E+00    0    0
  -15    2    4    4    0    0    0.2042345238E+02    0.3403384209E+01   -0.2321084023E+02    0.3115447617E+02    0.1777029991E+01    0    0
   16    1    7    7    0    0   -0.3823172808E+01   -0.6636772156E+01    0.5289655685E+01    0.9308267593E+01    0.1726334885E-03    0    0
 -213    2    7    7    0    0   -0.1643500137E+02   -0.3182821083E+02    0.2125020790E+02    0.4165712357E+02    0.7747309208E+00    0    0
 -211    1   12   12    0    0   -0.6740403652E+01   -0.1232239819E+02    0.8455822945E+01    0.1639496613E+02    0.1395679265E+00    0    0
  111    1   12   12    0    0   -0.9694600105E+01   -0.1950581551E+02    0.1279438591E+02    0.2526215744E+02    0.1349640042E+00    0    0
  -16    1   10   10    0    0    0.2230908871E+01    0.2793087438E-01   -0.2602929831E+01    0.3428261518E+01    0.3343033313E-03    0    0
   24    2   10   10    0    0    0.1819334793E+02    0.3375587225E+01   -0.2060882568E+02    0.2772744179E+02    0.1301865220E+01    0    0
  211    1   16   16    0    0    0.8662119865E+01    0.1646029115E+01   -0.9733259201E+01    0.1313383198E+02    0.1395680159E+00    0    0
  130    1   16   16    0    0    0.6004280567E+01    0.7752637267E+00   -0.6849086285E+01    0.9154787064E+01    0.4977199733E+00    0    0
  111    1   16   16    0    0    0.3526948214E+01    0.9542943239E+00   -0.4026478767E+01    0.5438822269E+01    0.1349640787E+00    0    0
</event>
<event>
   21 9999    1    0.9119999695E+02    0.7565275169E-02    0.1185000000E+00
   11   -1    0    0    0    0    0.0000000000E+00    0.0000000000E+00    0.8000000000E+02    0.8000000000E+02    0.5109988851E-03    0    0
  -11   -1    0    0    0    0    0.0000000000E+00    0.0000000000E+00   -0.8000000000E+02    0.8000000000E+02    0.5109988851E-03    0    0
  -24    2    1    2    0    0    0.3934722662E+01   -0.8978641510E+01   -0.2290465355E+02    0.8412174988E+02    0.8034767151E+02    0    0
   24    2    1    2    0    0   -0.3936281919E+01    0.8979095459E+01    0.2290595436E+02    0.7587612915E+02    0.7166857910E+02    0    0
   22    1    1    2    0    0    0.1408506185E-02   -0.4986298736E-03   -0.1263059792E-02    0.1956487074E-02    0.0000000000E+00    0    0
   22    1    1    2    0    0    0.1507887791E-03    0.4425800580E-04   -0.3632927474E-04    0.1612942724E-03    0.0000000000E+00    0    0
   15    2    3    3    0    0   -0.3756430054E+02    0.2930306673E+01   -0.9218267441E+01    0.3883037186E+02    0.1777029991E+01    0    0
  -16    1    3    3    0    0    0.4149902344E+02   -0.1190894794E+02   -0.1368638706E+02    0.4529138184E+02    0.0000000000E+00    0    0
   16    1    4    4    0    0   -0.1954763985E+02    0.3388534164E+02    0.2488149834E+02    0.4636178970E+02    0.0000000000E+00    0    0
  -15    2    4    4    0    0    0.1561135769E+02   -0.2490624619E+02   -0.1975545764E+01    0.2951433945E+02    0.1777029991E+01    0    0
   16    1    7    7    0    0   -0.1214985752E+02    0.9402986765E+00   -0.3064483643E+01    0.1256559849E+02    0.2001171379E-03    0    0
  -24    2    7    7    0    0   -0.2541592407E+02    0.1990123391E+01   -0.6154146194E+01    0.2626630211E+02    0.1454427958E+01    0    0
 -211    1   12   12    0    0   -0.6428530693E+01    0.4784561694E+00   -0.1952616572E+01    0.6736996174E+01    0.1395677477E+00    0    0
 -211    1   12   12    0    0   -0.4722971439E+01    0.4201608300E+00   -0.1099484324E+01    0.4869428635E+01    0.1395680010E+00    0    0
  211    1   12   12    0    0   -0.1148796463E+02    0.1156531215E+01   -0.2449264765E+01    0.1180378246E+02    0.1395681202E+00    0    0
  111    1   12   12    0    0   -0.2776459932E+01   -0.6502455473E-01   -0.6527814865E+00    0.2856098175E+01    0.1349641383E+00    0    0
  -16    1   10   10    0    0    0.1224457771E+00   -0.3770075440E+00   -0.7490399480E-01    0.4034083188E+00    0.7928699051E-04    0    0
   24    2   10   10    0    0    0.1548952579E+02   -0.2453022003E+02   -0.1900719523E+01    0.2911209297E+02    0.1498037696E+01    0    0
  321    1   18   18    0    0    0.4657712460E+01   -0.7095415592E+01   -0.7017127275E+00    0.8530844688E+01    0.4936669469E+00    0    0
  111    1   18   18    0    0    0.6808464050E+01   -0.1061722565E+02   -0.8344516158E+00    0.1264101219E+02    0.1349639148E+00    0    0
  130    1   18   18    0    0    0.4023350716E+01   -0.6817580223E+01   -0.3645553887E+00    0.7940237999E+01    0.4977200031E+00    0    0
</event>
<event>
   22 9999    1    0.9119999695E+02    0.7565275169E-02    0.1185000000E+00
   11   -1    0    0    0    0    0.0000000000E+00    0.0000000000E+00    0.8000000000E+02    0.8000000000E+02    0.5109988851E-03    0    0
  -11   -1    0    0    0    0    0.0000000000E+00    0.0000000000E+00   -0.8000000000E+02    0.8000000000E+02    0.5109988851E-03    0    0
  -24    2    1    2    0    0   -0.7185989380E+01    0.1235004902E+02    0.2080895233E+02    0.8463114166E+02    0.8077905273E+02    0    0
   24    2    1    2    0    0    0.7185997009E+01   -0.1235004902E+02   -0.2080896950E+02    0.7536884308E+02    0.7101610565E+02    0    0
   15    2    3    3    0    0    0.2753298569E+02    0.2055646515E+02    0.3225815201E+02    0.4716333008E+02    0.1777029991E+01    0    0
  -16    1    3    3    0    0   -0.3471897507E+02   -0.8206416130E+01   -0.1144919872E+02    0.3746780777E+02    0.0000000000E+00    0    0
   16    1    4    4    0    0   -0.2038683510E+02    0.1885496902E+02    0.2027701139E+01    0.2784321213E+02    0.0000000000E+00    0    0
  -15    2    4    4    0    0    0.2757283211E+02   -0.3120501900E+02   -0.2283666992E+02    0.4752563095E+02    0.1777029991E+01    0    0
   16    1    5    5    0    0    0.9848873019E+00    0.8458817005E+00    0.1213082910E+01    0.1776819944E+01    0.3814697266E-04    0    0
  -24    2    5    5    0    0    0.2654918289E+02    0.1971139336E+02    0.3104633713E+02    0.4538836670E+02    0.1682456017E+01    0    0
 -211    1   10   10    0    0    0.1838718891E+01    0.1500062466E+01    0.2291047096E+01    0.3301431656E+01    0.1395679861E+00    0    0
 -211    1   10   10    0    0    0.4165067196E+01    0.2767207146E+01    0.4722881317E+01    0.6879702568E+01    0.1395679712E+00    0    0
  211    1   10   10    0    0    0.6961843967E+01    0.5215381622E+01    0.8555679321E+01    0.1220191002E+02    0.1395680159E+00    0    0
  111    1   10   10    0    0    0.1480322599E+01    0.1188331246E+01    0.1745231628E+01    0.2582156897E+01    0.1349640042E+00    0    0
  111    1   10   10    0    0    0.4363302708E+01    0.3489195824E+01    0.5294842720E+01    0.7698472023E+01    0.1349639744E+00    0    0
  111    1   10   10    0    0    0.7739927292E+01    0.5551214695E+01    0.8436655045E+01    0.1272469330E+02    0.1349639595E+00    0    0
  -16    1    8    8    0    0    0.5413519859E+01   -0.5644569397E+01   -0.4150331974E+01    0.8853960037E+01    0.6466559134E-03    0    0
   24    2    8    8    0    0    0.2216039467E+02   -0.2556167603E+02   -0.1868723488E+02    0.3867353821E+02    0.1395484209E+01    0    0
  211    1   18   18    0    0    0.3917640686E+01   -0.4776065350E+01   -0.3836305857E+01    0.7272924423E+01    0.1395677477E+00    0    0
  211    1   18   18    0    0    0.5923668385E+01   -0.6685289860E+01   -0.4564007282E+01    0.1003157997E+02    0.1395681798E+00    0    0
 -211    1   18   18    0    0    0.8228455544E+01   -0.9650891304E+01   -0.6854893208E+01    0.1441721916E+02    0.1395679116E+00    0    0
  111    1   18   18    0    0    0.4090629101E+01   -0.4449426651E+01   -0.3432027578E+01    0.6951810837E+01    0.1349639744E+00    0    0
</event>
<event>
   18 9999    1    0.9119999695E+02    0.7565275169E-02    0.1185000000E+00
   11   -1    0    0    0    0    0.0000000000E+00    0.0000000000E+00    0.8000000000E+02    0.8000000000E+02    0.5109988851E-03    0    0
  -11   -1    0    0    0    0    0.0000000000E+00    0.0000000000E+00   -0.8000000000E+02    0.8000000000E+02    0.5109988851E-03    0    0
  -24    2    1    2    0    0   -0.1086835384E+02   -0.1240371108E+01    0.1306221962E+02    0.8253363800E+02    0.8075593567E+02    0    0
   24    2    1    2    0    0    0.1086835480E+02    0.1240370512E+01   -0.1306671429E+02    0.7746186829E+02    0.7556415558E+02    0    0
   22    1    1    2    0    0   -0.1115995929E-05    0.5692369314E-06    0.4494220018E-02    0.4494220484E-02    0.0000000000E+00    0    0
   15    2    3    3    0    0    0.3196566701E+00   -0.2039867210E+02    0.4161137772E+02    0.4637749863E+02    0.1777029991E+01    0    0
  -16    1    3    3    0    0   -0.1118801022E+02    0.1915830231E+02   -0.2854915619E+02    0.3615613937E+02    0.0000000000E+00    0    0
   16    1    4    4    0    0   -0.2094900513E+02    0.7334408283E+01   -0.3271342850E+02    0.3953255081E+02    0.0000000000E+00    0    0
  -15    2    4    4    0    0    0.3181735992E+02   -0.6094037533E+01    0.1964671326E+02    0.3792931366E+02    0.1777029991E+01    0    0
   16    1    6    6    0    0   -0.1271889061E+00   -0.1065076828E+02    0.2179976273E+02    0.2426282501E+02    0.2383499086E-03    0    0
  -24    2    6    6    0    0    0.4468581676E+00   -0.9748706818E+01    0.1981325150E+02    0.2211650085E+02    0.1156573772E+01    0    0
 -211    1   11   11    0    0    0.1531043798E+00   -0.9274910688E+00    0.1880381942E+01    0.2106892586E+01    0.1395682991E+00    0    0
 -211    1   11   11    0    0    0.1126989909E-01   -0.2457038641E+01    0.5159721851E+01    0.5716587543E+01    0.1395682395E+00    0    0
  211    1   11   11    0    0   -0.3558385372E-01   -0.5874393582E+00    0.8961628079E+00    0.1081174493E+01    0.1395680606E+00    0    0
  111    1   11   11    0    0    0.3180676699E+00   -0.5776737213E+01    0.1187698364E+02    0.1321184349E+02    0.1349640638E+00    0    0
  -16    1    9    9    0    0    0.1830912971E+02   -0.4002083778E+01    0.1093392944E+02    0.2169773483E+02    0.1220703125E-03    0    0
  -13    1    9    9    0    0    0.5797849178E+01   -0.6821629405E+00    0.3310317516E+01    0.6711912155E+01    0.1056590900E+00    0    0
   14    1    9    9    0    0    0.7711635113E+01   -0.1410030961E+01    0.5403240681E+01    0.9521161079E+01    0.2441406250E-03    0    0
</event>
<event>
   24 9999    1    0.9119999695E+02    0.7565275169E-02    0.1185000000E+00
   11   -1    0    0    0    0    0.0000000000E+00    0.0000000000E+00    0.8000000000E+02    0.8000000000E+02    0.5109988851E-03    0    0
  -11   -1    0    0    0    0    0.0000000000E+00    0.0000000000E+00   -0.8000000000E+02    0.8000000000E+02    0.5109988851E-03    0    0
  -24    2    1    2    0    0   -0.2897496700E+01   -0.6354683399E+01   -0.9071667671E+01    0.7905938721E+02    0.7822604370E+02    0    0
   24    2    1    2    0    0    0.2897478342E+01    0.6354666710E+01    0.9054121971E+01    0.8091460419E+02    0.8010254669E+02    0    0
   22    1    1    2    0    0   -0.5617949341E-06    0.8510353382E-06    0.2170006558E-01    0.2170006558E-01    0.0000000000E+00    0    0
   22    1    1    2    0    0   -0.2081766866E-06    0.1146449478E-06   -0.4230889026E-02    0.4230889026E-02    0.0000000000E+00    0    0
   22    1    1    2    0    0    0.1911888285E-04    0.1550810339E-04    0.7657447713E-04    0.8043434354E-04    0.0000000000E+00    0    0
   15    2    3    3    0    0   -0.1947268486E+02    0.2566375732E+02    0.1512995338E+02    0.3563547897E+02    0.1777029991E+01    0    0
  -16    1    3    3    0    0    0.1657518959E+02   -0.3201844025E+02   -0.2420162201E+02    0.4342390823E+02    0.0000000000E+00    0    0
   16    1    4    4    0    0   -0.2480649948E+02    0.3342713928E+02    0.4275343895E+01    0.4184512711E+02    0.0000000000E+00    0    0
  -15    2    4    4    0    0    0.2770397758E+02   -0.2707247353E+02    0.4778778076E+01    0.3906947327E+02    0.1777029991E+01    0    0
   16    1    8    8    0    0   -0.1033097553E+02    0.1389730740E+02    0.8215387344E+01    0.1916655350E+02    0.4815592547E-03    0    0
  -24    2    8    8    0    0   -0.9142476082E+01    0.1176745987E+02    0.6915160656E+01    0.1647032547E+02    0.1180754781E+01    0    0
  111    1   13   13    0    0   -0.3073913336E+01    0.3931323528E+01    0.2238334656E+01    0.5471069813E+01    0.1349640489E+00    0    0
  111    1   13   13    0    0   -0.1670140743E+01    0.2423247099E+01    0.1381338120E+01    0.3253890991E+01    0.1349639893E+00    0    0
  111    1   13   13    0    0   -0.3872416496E+01    0.4823846340E+01    0.2722992659E+01    0.6760030270E+01    0.1349639893E+00    0    0
 -211    1   13   13    0    0   -0.5260063410E+00    0.5890443921E+00    0.5724962950E+00    0.9853361249E+00    0.1395681351E+00    0    0
  -16    1   11   11    0    0    0.5736705661E+00   -0.4738025367E+00   -0.1659123600E-01    0.7442192435E+00    0.4882812500E-03    0    0
   24    2   11   11    0    0    0.2713139725E+02   -0.2659973717E+02    0.4795557499E+01    0.3832679367E+02    0.1512249112E+01    0    0
  211    1   19   19    0    0    0.8188431263E+00   -0.8565619588E+00    0.8865961432E-01    0.1196470737E+01    0.1395679265E+00    0    0
  211    1   19   19    0    0    0.5056855679E+01   -0.4549505234E+01    0.8491032124E+00    0.6856401443E+01    0.1395678669E+00    0    0
 -211    1   19   19    0    0    0.4959282398E+01   -0.5202329159E+01    0.9945240021E+00    0.7257221699E+01    0.1395680010E+00    0    0
  111    1   19   19    0    0    0.1772668481E+01   -0.1814618945E+01    0.3965620100E+00    0.2571122646E+01    0.1349640340E+00    0    0
  111    1   19   19    0    0    0.1452374744E+02   -0.1417672157E+02    0.2466708660E+01    0.2044557571E+02    0.1349638999E+00    0    0
</event>
<event>
   21 9999    1    0.9119999695E+02    0.7565275169E-02    0.1185000000E+00
   11   -1    0    0    0    0    0.0000000000E+00    0.0000000000E+00    0.8000000000E+02    0.8000000000E+02    0.5109988851E-03    0    0
  -11   -1    0    0    0    0    0.0000000000E+00    0.0000000000E+00   -0.8000000000E+02    0.8000000000E+02    0.5109988851E-03    0    0
  -24    2    1    2    0    0    0.3702062368E+01    0.1034633279E+01   -0.4709030628E+01    0.8003713226E+02    0.7980596161E+02    0    0
   24    2    1    2    0    0   -0.3702062368E+01   -0.1034633279E+01    0.4709030628E+01    0.7996286774E+02    0.7973148346E+02    0    0
   15    2    3    3    0    0    0.1166602802E+02    0.3904434586E+02   -0.5726789474E+01    0.4118872452E+02    0.1777029991E+01    0    0
  -16    1    3    3    0    0   -0.7963965416E+01   -0.3800971222E+02    0.1017758965E+01    0.3884840775E+02    0.0000000000E+00    0    0
   16    1    4    4    0    0    0.5765749216E+00   -0.1318043709E+02    0.4012407684E+02    0.4223740005E+02    0.0000000000E+00    0    0
  -15    2    4    4    0    0   -0.4278637409E+01    0.1214580345E+02   -0.3541504669E+02    0.3772546387E+02    0.1777029991E+01    0    0
   16    1    5    5    0    0    0.2297860384E+01    0.8383075714E+01   -0.8972455263E+00    0.8738488197E+01    0.5980199785E-03    0    0
*****    2    5    5    0    0    0.9368625641E+01    0.3066280365E+02   -0.4829769135E+01    0.3245185471E+02    0.1348172307E+01    0    0
 -211    1   10   10    0    0    0.1408200026E+01    0.3966265678E+01   -0.4134674072E+00    0.4231397629E+01    0.1395686418E+00    0    0
 -211    1   10   10    0    0    0.2863709450E+01    0.8222643852E+01   -0.1365010262E+01    0.8814501762E+01    0.1395679712E+00    0    0
  211    1   10   10    0    0    0.5096714973E+01    0.1847389030E+02   -0.3051290751E+01    0.1940595245E+02    0.1395677477E+00    0    0
  -16    1    8    8    0    0   -0.3813244402E+00    0.9866126776E+00   -0.3375813723E+01    0.3537644863E+01    0.6103515625E-04    0    0
   24    2    8    8    0    0   -0.3897481203E+01    0.1115966892E+02   -0.3204062653E+02    0.3418930435E+02    0.1605670691E+01    0    0
  211    1   15   15    0    0   -0.5940570831E+00    0.1997690558E+01   -0.4963085651E+01    0.5384734631E+01    0.1395680457E+00    0    0
  211    1   15   15    0    0   -0.3837805390E+00    0.7302982807E+00   -0.2885934591E+01    0.3004783154E+01    0.1395680010E+00    0    0
  211    1   15   15    0    0   -0.3902360201E+00    0.1061391234E+01   -0.3250391006E+01    0.3444322348E+01    0.1395680159E+00    0    0
 -211    1   15   15    0    0   -0.1567188144E+01    0.4624315739E+01   -0.1351047325E+02    0.1436637592E+02    0.1395680010E+00    0    0
 -211    1   15   15    0    0   -0.7930769324E+00    0.2282152891E+01   -0.6250930309E+01    0.6703043938E+01    0.1395679861E+00    0    0
  111    1   15   15    0    0   -0.1691426635E+00    0.4638198912E+00   -0.1179813266E+01    0.1286045432E+01    0.1349639893E+00    0    0
</event>
<event>
   21 9999    1    0.9119999695E+02    0.7565275169E-02    0.1185000000E+00
   11   -1    0    0    0    0    0.0000000000E+00    0.0000000000E+00    0.8000000000E+02    0.8000000000E+02    0.5109988851E-03    0    0
  -11   -1    0    0    0    0    0.0000000000E+00    0.0000000000E+00   -0.8000000000E+02    0.8000000000E+02    0.5109988851E-03    0    0
  -24    2    1    2    0    0    0.5689161301E+01    0.7101570606E+01    0.9396134377E+01    0.8033911133E+02    0.7926718140E+02    0    0
   24    2    1    2    0    0   -0.5689161301E+01   -0.7101570606E+01   -0.9396134377E+01    0.7966088867E+02    0.7857971191E+02    0    0
   15    2    3    3    0    0    0.3500575638E+02   -0.1521049786E+02    0.1840728760E+02    0.4241165161E+02    0.1777029991E+01    0    0
  -16    1    3    3    0    0   -0.2931659508E+02    0.2231206894E+02   -0.9011154175E+01    0.3792745590E+02    0.0000000000E+00    0    0
   16    1    4    4    0    0    0.2748774719E+02   -0.5789232731E+01    0.2063571739E+02    0.3485576248E+02    0.0000000000E+00    0    0
  -15    2    4    4    0    0   -0.3317690659E+02   -0.1312337875E+01   -0.3003185081E+02    0.4480512619E+02    0.1777029991E+01    0    0
   16    1    5    5    0    0    0.3262379169E+01   -0.1254045367E+01    0.1712681055E+01    0.3892174721E+01    0.1868812433E-04    0    0
  -24    2    5    5    0    0    0.3174475288E+02   -0.1395705032E+02    0.1669532967E+02    0.3852114487E+02    0.1617396593E+01    0    0
 -211    1   10   10    0    0    0.5573948860E+01   -0.2255524635E+01    0.3001553535E+01    0.6721986294E+01    0.1395679712E+00    0    0
 -211    1   10   10    0    0    0.4546747208E+01   -0.1710999966E+01    0.2324090242E+01    0.5387142658E+01    0.1395679116E+00    0    0
 -211    1   10   10    0    0    0.3073553562E+01   -0.1387412786E+01    0.1764008045E+01    0.3808260679E+01    0.1395679563E+00    0    0
  211    1   10   10    0    0    0.1416348171E+02   -0.6614276409E+01    0.7221101761E+01    0.1721965981E+02    0.1395679861E+00    0    0
  211    1   10   10    0    0    0.1660021186E+01   -0.8291627765E+00    0.9249672890E+00    0.2078033924E+01    0.1395679712E+00    0    0
  111    1   10   10    0    0    0.2727000713E+01   -0.1159674168E+01    0.1459610105E+01    0.3306063175E+01    0.1349640042E+00    0    0
  -16    1    8    8    0    0   -0.1306909752E+02   -0.1620957553E+00   -0.1176743603E+02    0.1758693123E+02    0.5987980985E-03    0    0
   24    2    8    8    0    0   -0.2010911560E+02   -0.1150293708E+01   -0.1826559639E+02    0.2721995735E+02    0.1262700081E+01    0    0
  321    1   18   18    0    0   -0.1136684227E+02   -0.5107281804E+00   -0.1014482880E+02    0.1525212097E+02    0.4936669171E+00    0    0
  111    1   18   18    0    0   -0.2507591486E+01   -0.9856303781E-01   -0.2314695835E+01    0.3416688681E+01    0.1349640638E+00    0    0
  310    1   18   18    0    0   -0.6234679699E+01   -0.5410023928E+00   -0.5806070805E+01    0.8551146507E+01    0.4977200031E+00    0    0
</event>
<event>
   22 9999    1    0.9119999695E+02    0.7565275169E-02    0.1185000000E+00
   11   -1    0    0    0    0    0.0000000000E+00    0.0000000000E+00    0.8000000000E+02    0.8000000000E+02    0.5109988851E-03    0    0
  -11   -1    0    0    0    0    0.0000000000E+00    0.0000000000E+00   -0.8000000000E+02    0.8000000000E+02    0.5109988851E-03    0    0
  -24    2    1    2    0    0   -0.1187225437E+02    0.2656935453E+01    0.7111549854E+01    0.8253623199E+02    0.8132432556E+02    0    0
   24    2    1    2    0    0    0.1187225437E+02   -0.2656935453E+01   -0.7111272812E+01    0.7746348572E+02    0.7617093658E+02    0    0
   22    1    1    2    0    0   -0.3833132478E-08    0.9494360853E-08   -0.2767973347E-03    0.2767973347E-03    0.0000000000E+00    0    0
   15    2    3    3    0    0    0.2576904488E+02    0.2697870636E+02    0.4848517418E+01    0.3766378021E+02    0.1777029991E+01    0    0
  -16    1    3    3    0    0   -0.3764130020E+02   -0.2432177162E+02    0.2263032198E+01    0.4487245560E+02    0.0000000000E+00    0    0
   16    1    4    4    0    0    0.4218255520E+01    0.3388773346E+02   -0.1790216064E+02    0.3855722427E+02    0.0000000000E+00    0    0
  -15    2    4    4    0    0    0.7653998852E+01   -0.3654466629E+02    0.1079088688E+02    0.3890626526E+02    0.1777029991E+01    0    0
   16    1    6    6    0    0    0.5016694069E+01    0.4836935043E+01    0.8783320189E+00    0.7023860931E+01    0.3521112376E-03    0    0
  -24    2    6    6    0    0    0.2075336456E+02    0.2214283371E+02    0.3970376253E+01    0.3064139938E+02    0.1457489371E+01    0    0
 -211    1   11   11    0    0    0.2786380053E+01    0.2635124922E+01    0.5439498425E+00    0.3875971794E+01    0.1395683736E+00    0    0
 -211    1   11   11    0    0    0.3157077551E+01    0.3333840370E+01    0.4661039114E+00    0.4617181301E+01    0.1395679861E+00    0    0
  211    1   11   11    0    0    0.8042507172E+00    0.8716780543E+00    0.1200150922E+00    0.1200218558E+01    0.1395680159E+00    0    0
  111    1   11   11    0    0    0.7741989613E+01    0.8272925377E+01    0.1826465726E+01    0.1147753811E+02    0.1349640340E+00    0    0
  111    1   11   11    0    0    0.6263667107E+01    0.7029264450E+01    0.1013841748E+01    0.9470489502E+01    0.1349639744E+00    0    0
  -16    1    9    9    0    0    0.2188822985E+01   -0.9296998024E+01    0.2643862486E+01    0.9910354614E+01    0.3492896503E-03    0    0
   24    2    9    9    0    0    0.5465476990E+01   -0.2724910736E+02    0.8147449493E+01    0.2899744225E+02    0.1444095969E+01    0    0
  111    1   18   18    0    0    0.4429698467E+01   -0.2265448761E+02    0.6788997173E+01    0.2406152153E+02    0.1349643171E+00    0    0
  111    1   18   18    0    0    0.6023114324E+00   -0.2042640686E+01    0.5025580525E+00    0.2192245483E+01    0.1349633634E+00    0    0
  111    1   18   18    0    0    0.2906103730E+00   -0.1590568185E+01    0.5889165401E+00    0.1726093769E+01    0.1349640191E+00    0    0
  211    1   18   18    0    0    0.1428568512E+00   -0.9614127874E+00    0.2669787407E+00    0.1017585158E+01    0.1395679861E+00    0    0
</event>
<event>
   22 9999    1    0.9119999695E+02    0.7565275169E-02    0.1185000000E+00
   11   -1    0    0    0    0    0.0000000000E+00    0.0000000000E+00    0.8000000000E+02    0.8000000000E+02    0.5109988851E-03    0    0
  -11   -1    0    0    0    0    0.0000000000E+00    0.0000000000E+00   -0.8000000000E+02    0.8000000000E+02    0.5109988851E-03    0    0
  -24    2    1    2    0    0   -0.1248166847E+02    0.8694893837E+01   -0.1501701236E+01    0.7590483856E+02    0.7434982300E+02    0    0
   24    2    1    2    0    0    0.1248390579E+02   -0.8697122574E+01    0.1674845219E+01    0.8391190338E+02    0.8250402832E+02    0    0
   22    1    1    2    0    0    0.4014560909E-04   -0.3387640390E-04   -0.1694711149E+00    0.1694711298E+00    0.0000000000E+00    0    0
   22    1    1    2    0    0    0.1333901673E-04    0.1329405222E-04   -0.8220555261E-02    0.8220576681E-02    0.0000000000E+00    0    0
   22    1    1    2    0    0   -0.2290866105E-02    0.2249964513E-02    0.4547736142E-02    0.5567073822E-02    0.0000000000E+00    0    0
   15    2    3    3    0    0   -0.3675488281E+02    0.2455764961E+02    0.8848802567E+01    0.4511605835E+02    0.1777029991E+01    0    0
  -16    1    3    3    0    0    0.2427321625E+02   -0.1586275673E+02   -0.1035050392E+02    0.3078878021E+02    0.0000000000E+00    0    0
   16    1    4    4    0    0   -0.1778293228E+02    0.9135389924E+00    0.3411407471E+02    0.3848165131E+02    0.0000000000E+00    0    0
  -15    2    4    4    0    0    0.3026683617E+02   -0.9610661507E+01   -0.3243923187E+02    0.4543025208E+02    0.1777029991E+01    0    0
   16    1    8    8    0    0   -0.1247629738E+02    0.8185308456E+01    0.2561217785E+01    0.1513991737E+02    0.0000000000E+00    0    0
  -24    2    8    8    0    0   -0.2428003311E+02    0.1637330818E+02    0.6287933826E+01    0.2997791862E+02    0.1237819552E+01    0    0
  111    1   13   13    0    0   -0.7538965225E+01    0.5224412918E+01    0.2219325781E+01    0.9437908173E+01    0.1349636763E+00    0    0
  111    1   13   13    0    0   -0.2121398449E+01    0.1321057081E+01    0.6911949515E+00    0.2596437931E+01    0.1349640489E+00    0    0
 -321    1   13   13    0    0   -0.1461966991E+02    0.9827837944E+01    0.3377412796E+01    0.1794357109E+02    0.4936669469E+00    0    0
  -16    1   11   11    0    0    0.4532771111E+01   -0.1723532915E+01   -0.4413153648E+01    0.6556867123E+01    0.2441406250E-03    0    0
   24    2   11   11    0    0    0.2573525810E+02   -0.7887507439E+01   -0.2802735519E+02    0.3887517548E+02    0.1109173059E+01    0    0
  111    1   18   18    0    0    0.1193138981E+02   -0.3438099623E+01   -0.1329843521E+02    0.1819464684E+02    0.1349640042E+00    0    0
  111    1   18   18    0    0    0.5175848961E+01   -0.1641972542E+01   -0.5699710846E+01    0.7873398781E+01    0.1349635124E+00    0    0
  111    1   18   18    0    0    0.2707105875E+01   -0.7402380109E+00   -0.2810268879E+01    0.3973940134E+01    0.1349640191E+00    0    0
  211    1   18   18    0    0    0.5920915604E+01   -0.2067197800E+01   -0.6218941689E+01    0.8833190918E+01    0.1395679563E+00    0    0
</event>
<event>
   23 9999    1    0.9119999695E+02    0.7565275169E-02    0.1185000000E+00
   11   -1    0    0    0    0    0.0000000000E+00    0.0000000000E+00    0.8000000000E+02    0.8000000000E+02    0.5109988851E-03    0    0
  -11   -1    0    0    0    0    0.0000000000E+00    0.0000000000E+00   -0.8000000000E+02    0.8000000000E+02    0.5109988851E-03    0    0
  -24    2    1    2    0    0    0.5270184040E+01   -0.6715758801E+01    0.7901107788E+01    0.7682243347E+02    0.7593669891E+02    0    0
   24    2    1    2    0    0   -0.5270184040E+01    0.6715758801E+01   -0.7901107788E+01    0.8317756653E+02    0.8236020660E+02    0    0
   15    2    3    3    0    0   -0.1951991081E+02    0.1869525194E+01   -0.2684056854E+02    0.3328807831E+02    0.1777029991E+01    0    0
  -16    1    3    3    0    0    0.2479009438E+02   -0.8585284233E+01    0.3474167633E+02    0.4353435516E+02    0.0000000000E+00    0    0
   16    1    4    4    0    0    0.4798504829E+01   -0.1848044014E+02    0.3058455467E+02    0.3605505753E+02    0.0000000000E+00    0    0
  -15    2    4    4    0    0   -0.1006868839E+02    0.2519619942E+02   -0.3848566055E+02    0.4712250900E+02    0.1777029991E+01    0    0
   16    1    5    5    0    0   -0.2794275761E+01    0.6545588374E+00   -0.3957117796E+01    0.4888272285E+01    0.7687880861E-04    0    0
  -24    2    5    5    0    0   -0.1672640228E+02    0.1215039968E+01   -0.2288450813E+02    0.2840111351E+02    0.1293719172E+01    0    0
 -211    1   10   10    0    0   -0.4146131992E+01    0.6912162155E-01   -0.5440352440E+01    0.6841937065E+01    0.1395679414E+00    0    0
 -211    1   10   10    0    0   -0.2651951790E+01    0.5909773987E-02   -0.3737293243E+01    0.4584727287E+01    0.1395680308E+00    0    0
 -211    1   10   10    0    0   -0.4720885277E+01    0.4392498136E+00   -0.6699169159E+01    0.8208413124E+01    0.1395679712E+00    0    0
  211    1   10   10    0    0   -0.3949239731E+01    0.4678335190E+00   -0.5293727398E+01    0.6622566700E+01    0.1395680010E+00    0    0
  211    1   10   10    0    0   -0.1258194327E+01    0.2329252064E+00   -0.1713965416E+01    0.2143470049E+01    0.1395680010E+00    0    0
  -16    1    8    8    0    0   -0.1176711917E+01    0.2879514217E+01   -0.4676969051E+01    0.5616964817E+01    0.4315837214E-04    0    0
   24    2    8    8    0    0   -0.8892373085E+01    0.2231767654E+02   -0.3381020737E+02    0.4150740051E+02    0.1606588840E+01    0    0
  211    1   17   17    0    0   -0.1162286758E+01    0.2790370226E+01   -0.4262466431E+01    0.5227348804E+01    0.1395680010E+00    0    0
  211    1   17   17    0    0   -0.2507586718E+01    0.5766034126E+01   -0.8422073364E+01    0.1051122856E+02    0.1395679861E+00    0    0
 -211    1   17   17    0    0   -0.1517720103E+01    0.3516947031E+01   -0.5512531757E+01    0.6714154720E+01    0.1395679861E+00    0    0
  111    1   17   17    0    0   -0.2054668188E+01    0.5232027531E+01   -0.7693225861E+01    0.9528888702E+01    0.1349639744E+00    0    0
  111    1   17   17    0    0   -0.1259824634E+01    0.3599674702E+01   -0.5525523186E+01    0.6715239048E+01    0.1349639893E+00    0    0
  111    1   17   17    0    0   -0.3902864158E+00    0.1412623048E+01   -0.2394387722E+01    0.2810539961E+01    0.1349639893E+00    0    0
</event>
<event>
   16 9999    1    0.9119999695E+02    0.7565275169E-02    0.1185000000E+00
   11   -1    0    0    0    0    0.0000000000E+00    0.0000000000E+00    0.8000000000E+02    0.8000000000E+02    0.5109988851E-03    0    0
  -11   -1    0    0    0    0    0.0000000000E+00    0.0000000000E+00   -0.8000000000E+02    0.8000000000E+02    0.5109988851E-03    0    0
  -24    2    1    2    0    0    0.4696939945E+01   -0.2948644400E+01    0.1000469971E+02    0.7991530609E+02    0.7909239197E+02    0    0
   24    2    1    2    0    0   -0.4696939945E+01    0.2948644400E+01   -0.1000469971E+02    0.8008469391E+02    0.7926353455E+02    0    0
   15    2    3    3    0    0    0.4151435471E+02   -0.7125920296E+01    0.3601900816E+01    0.4231254959E+02    0.1777029991E+01    0    0
  -16    1    3    3    0    0   -0.3681741333E+02    0.4177275658E+01    0.6402798653E+01    0.3760276031E+02    0.0000000000E+00    0    0
   16    1    4    4    0    0    0.2976966286E+02    0.2383024406E+02    0.1422752023E+01    0.3815937042E+02    0.0000000000E+00    0    0
  -15    2    4    4    0    0   -0.3446660233E+02   -0.2088159943E+02   -0.1142745113E+02    0.4192531967E+02    0.1777029991E+01    0    0
   16    1    5    5    0    0    0.1330531311E+02   -0.2945880651E+01    0.1586605668E+01    0.1371958065E+02    0.2441406250E-03    0    0
   11    1    5    5    0    0    0.2121922684E+02   -0.3122928143E+01    0.1289989352E+01    0.2148656082E+02    0.4882812500E-03    0    0
  -12    1    5    5    0    0    0.6991449833E+01   -0.1057392120E+01    0.7254477143E+00    0.7108074665E+01    0.3051757812E-04    0    0
  -16    1    8    8    0    0   -0.5564431190E+01   -0.3276039600E+01   -0.2241757154E+01    0.6835261822E+01    0.2990099892E-03    0    0
   24    2    8    8    0    0   -0.2890353012E+02   -0.1760638237E+02   -0.9186143875E+01    0.3509170914E+02    0.1282211781E+01    0    0
  111    1   13   13    0    0   -0.2427723646E+01   -0.1302176833E+01   -0.8941890001E+00    0.2899533749E+01    0.1349638999E+00    0    0
  111    1   13   13    0    0   -0.1487780094E+02   -0.9205951691E+01   -0.4441170692E+01    0.1805105782E+02    0.1349638402E+00    0    0
  321    1   13   13    0    0   -0.1159800434E+02   -0.7098253250E+01   -0.3850784540E+01    0.1414111614E+02    0.4936669469E+00    0    0
</event>
<event>
   20 9999    1    0.9119999695E+02    0.7565275169E-02    0.1185000000E+00
   11   -1    0    0    0    0    0.0000000000E+00    0.0000000000E+00    0.8000000000E+02    0.8000000000E+02    0.5109988851E-03    0    0
  -11   -1    0    0    0    0    0.0000000000E+00    0.0000000000E+00   -0.8000000000E+02    0.8000000000E+02    0.5109988851E-03    0    0
  -24    2    1    2    0    0   -0.2647883415E+02    0.5494034767E+01    0.7921217442E+01    0.8162463379E+02    0.7660627747E+02    0    0
   24    2    1    2    0    0    0.2647880745E+02   -0.5494032860E+01   -0.7563305378E+01    0.7801745605E+02    0.7278878784E+02    0    0
   22    1    1    2    0    0    0.2827465505E-04   -0.1812442633E-05   -0.3573948145E+00    0.3573948145E+00    0.0000000000E+00    0    0
   22    1    1    2    0    0   -0.1177327704E-05   -0.5373616929E-07   -0.5175574915E-03    0.5175588303E-03    0.0000000000E+00    0    0
   15    2    3    3    0    0    0.1294511557E+01    0.3655955887E+02   -0.7141514778E+01    0.3731536102E+02    0.1777029991E+01    0    0
  -16    1    3    3    0    0   -0.2777334595E+02   -0.3106552505E+02    0.1506273270E+02    0.4430926895E+02    0.0000000000E+00    0    0
   16    1    4    4    0    0    0.3556843996E+01   -0.6132607937E+01    0.3171667099E+02    0.3249934387E+02    0.0000000000E+00    0    0
  -15    2    4    4    0    0    0.2292196274E+02    0.6385751963E+00   -0.3927997589E+02    0.4551811218E+02    0.1777029991E+01    0    0
   16    1    7    7    0    0    0.4921126068E+00    0.6167689800E+01   -0.8884404302E+00    0.6250751972E+01    0.3662109375E-03    0    0
  -24    2    7    7    0    0    0.8024499416E+00    0.3039330864E+02   -0.6253355503E+01    0.3106607819E+02    0.1264771104E+01    0    0
  111    1   12   12    0    0    0.2167710960E+00    0.1116410732E+02   -0.1953714252E+01    0.1133664417E+02    0.1349632293E+00    0    0
  111    1   12   12    0    0    0.1943358332E+00    0.6707225800E+01   -0.1374392033E+01    0.6850679874E+01    0.1349637955E+00    0    0
  111    1   12   12    0    0   -0.1124244258E+00    0.2298308134E+01   -0.5172033906E+00    0.2362323761E+01    0.1349639744E+00    0    0
 -211    1   12   12    0    0    0.5037675500E+00    0.1022367191E+02   -0.2408046484E+01    0.1051643562E+02    0.1395680606E+00    0    0
  -16    1   10   10    0    0    0.2081070185E+01    0.3003952205E+00   -0.4244750023E+01    0.4736981392E+01    0.1495049946E-03    0    0
  213    2   10   10    0    0    0.2084179497E+02    0.3382050991E+00   -0.3503677368E+02    0.4078292465E+02    0.1084683895E+01    0    0
  211    1   18   18    0    0    0.1551094532E+02    0.2836451530E+00   -0.2516924477E+02    0.2956653976E+02    0.1395680606E+00    0    0
  111    1   18   18    0    0    0.5330850601E+01    0.5455995351E-01   -0.9867529869E+01    0.1121638584E+02    0.1349637359E+00    0    0
</event>
<event>
   20 9999    1    0.9119999695E+02    0.7565275169E-02    0.1185000000E+00
   11   -1    0    0    0    0    0.0000000000E+00    0.0000000000E+00    0.8000000000E+02    0.8000000000E+02    0.5109988851E-03    0    0
  -11   -1    0    0    0    0    0.0000000000E+00    0.0000000000E+00   -0.8000000000E+02    0.8000000000E+02    0.5109988851E-03    0    0
  -24    2    1    2    0    0   -0.5615285397E+01   -0.9071726799E+01    0.2853017426E+02    0.8513028717E+02    0.7949445343E+02    0    0
   24    2    1    2    0    0    0.5614731789E+01    0.9069255829E+01   -0.2772753334E+02    0.7398699188E+02    0.6776048279E+02    0    0
   22    1    1    2    0    0   -0.2302473295E-03    0.5726410891E-03   -0.8316646218E+00    0.8316648602E+00    0.0000000000E+00    0    0
   22    1    1    2    0    0    0.1070906183E-04   -0.3479168981E-05    0.3941856697E-01    0.3941857070E-01    0.0000000000E+00    0    0
   22    1    1    2    0    0    0.7732684608E-03    0.1902330667E-02   -0.1091838256E-01    0.1110981032E-01    0.0000000000E+00    0    0
   22    1    1    2    0    0    0.1020419216E-07    0.2582411796E-07    0.5237550940E-03    0.5237550940E-03    0.0000000000E+00    0    0
   15    2    3    3    0    0   -0.6015915394E+01    0.3481982803E+02    0.1920711708E+02    0.4025770569E+02    0.1777029991E+01    0    0
  -16    1    3    3    0    0    0.4006296992E+00   -0.4389155579E+02    0.9323056221E+01    0.4487258148E+02    0.0000000000E+00    0    0
   16    1    4    4    0    0   -0.1859315491E+02    0.2930447197E+02   -0.2393584824E+02    0.4215901184E+02    0.0000000000E+00    0    0
  -15    2    4    4    0    0    0.2420788574E+02   -0.2023521614E+02   -0.3791686058E+01    0.3182798195E+02    0.1777029991E+01    0    0
   16    1    9    9    0    0   -0.4981412888E+01    0.3066381645E+02    0.1668301773E+02    0.3526197815E+02    0.2157918643E-03    0    0
 -321    1    9    9    0    0   -0.1034739375E+01    0.4157385826E+01    0.2524857283E+01    0.4997314453E+01    0.4936670959E+00    0    0
  -16    1   12   12    0    0    0.2027947426E+01   -0.1304916024E+01   -0.3304503560E+00    0.2434044838E+01    0.1954078471E-03    0    0
   24    2   12   12    0    0    0.2218089104E+02   -0.1893109703E+02   -0.3461385012E+01    0.2939519119E+02    0.1310589194E+01    0    0
  211    1   16   16    0    0    0.3283695459E+01   -0.3071662664E+01   -0.7760993242E+00    0.4565038681E+01    0.1395675391E+00    0    0
  111    1   16   16    0    0    0.6658967495E+01   -0.6043855190E+01   -0.9803704619E+00    0.9047064781E+01    0.1349643171E+00    0    0
   22    1   16   16    0    0    0.1194880390E+02   -0.9526096344E+01   -0.1663115501E+01    0.1537161064E+02    0.1726334885E-03    0    0
   22    1   16   16    0    0    0.2894682586E+00   -0.2895196974E+00   -0.4180733487E-01    0.4115354121E+00    0.0000000000E+00    0    0
</event>
<event>
   15 9999    1    0.9119999695E+02    0.7565275169E-02    0.1185000000E+00
   11   -1    0    0    0    0    0.0000000000E+00    0.0000000000E+00    0.8000000000E+02    0.8000000000E+02    0.5109988851E-03    0    0
  -11   -1    0    0    0    0    0.0000000000E+00    0.0000000000E+00   -0.8000000000E+02    0.8000000000E+02    0.5109988851E-03    0    0
  -24    2    1    2    0    0   -0.5253338814E+01   -0.1174003887E+02   -0.2283211946E+01    0.7935019684E+02    0.7826758575E+02    0    0
   24    2    1    2    0    0    0.5253338814E+01    0.1174003887E+02    0.2283074141E+01    0.8064966583E+02    0.7958473206E+02    0    0
   22    1    1    2    0    0   -0.3149230654E-08    0.2923157272E-08    0.1379636524E-03    0.1379636524E-03    0.0000000000E+00    0    0
   15    2    3    3    0    0    0.2553064919E+02   -0.2652200508E+02    0.1649446678E+02    0.4037890625E+02    0.1777029991E+01    0    0
  -16    1    3    3    0    0   -0.3078398895E+02    0.1478196621E+02   -0.1877767754E+02    0.3897129440E+02    0.0000000000E+00    0    0
   16    1    4    4    0    0   -0.1151359463E+02   -0.3647348166E+01    0.3710036469E+02    0.3901670456E+02    0.0000000000E+00    0    0
  -15    2    4    4    0    0    0.1676693344E+02    0.1538738728E+02   -0.3481729126E+02    0.4163296127E+02    0.1777029991E+01    0    0
   16    1    6    6    0    0    0.2307379484E+01   -0.2350171804E+01    0.1976397157E+01    0.3841022491E+01    0.2114319796E-03    0    0
 -213    2    6    6    0    0    0.2322427368E+02   -0.2417287636E+02    0.1451871777E+02    0.3653947067E+02    0.8031063080E+00    0    0
 -211    1   11   11    0    0    0.1780074883E+02   -0.1842115784E+02    0.1142371368E+02    0.2804864311E+02    0.1395682693E+00    0    0
  111    1   11   11    0    0    0.5423521996E+01   -0.5751716614E+01    0.3095002174E+01    0.8490823746E+01    0.1349643469E+00    0    0
  -16    1    9    9    0    0    0.8774802208E+01    0.7296206474E+01   -0.1851960182E+02    0.2175333214E+02    0.2990099892E-03    0    0
  321    1    9    9    0    0    0.7992791653E+01    0.8091787338E+01   -0.1629906082E+02    0.1988126945E+02    0.4936670363E+00    0    0
</event>
<event>
   23 9999    1    0.9119999695E+02    0.7565275169E-02    0.1185000000E+00
   11   -1    0    0    0    0    0.0000000000E+00    0.0000000000E+00    0.8000000000E+02    0.8000000000E+02    0.5109988851E-03    0    0
  -11   -1    0    0    0    0    0.0000000000E+00    0.0000000000E+00   -0.8000000000E+02    0.8000000000E+02    0.5109988851E-03    0    0
  -24    2    1    2    0    0    0.1233923721E+02   -0.5423628330E+01    0.1280281305E+01    0.8007778931E+02    0.7892490387E+02    0    0
   24    2    1    2    0    0   -0.1233929920E+02    0.5424410820E+01   -0.2993842840E+01    0.7820819092E+02    0.7697970581E+02    0    0
   22    1    1    2    0    0    0.3880393706E-04    0.1333888649E-03    0.1682087064E+01    0.1682087064E+01    0.0000000000E+00    0    0
   22    1    1    2    0    0    0.5006557444E-06    0.3473838035E-06    0.3078970127E-01    0.3078970127E-01    0.0000000000E+00    0    0
   22    1    1    2    0    0    0.2305567796E-04   -0.9162870701E-03    0.6848676712E-03    0.1144184149E-02    0.0000000000E+00    0    0
   15    2    3    3    0    0    0.9515886307E+01    0.1361871004E+01    0.3973868561E+02    0.4092343903E+02    0.1777029991E+01    0    0
  -16    1    3    3    0    0    0.2823350668E+01   -0.6785499096E+01   -0.3845840454E+02    0.3915435028E+02    0.0000000000E+00    0    0
   16    1    4    4    0    0    0.6431125641E+01    0.3821823883E+02   -0.9307145119E+01    0.3985744858E+02    0.0000000000E+00    0    0
  -15    2    4    4    0    0   -0.1877042580E+02   -0.3279382706E+02    0.6313302040E+01    0.3835074615E+02    0.1777029991E+01    0    0
   16    1    8    8    0    0    0.4410634339E+00    0.2732812800E-01    0.2545652151E+01    0.2583723783E+01    0.8631674427E-04    0    0
  -24    2    8    8    0    0    0.9075197220E+01    0.1334596395E+01    0.3719459534E+02    0.3834132385E+02    0.1574398994E+01    0    0
 -211    1   13   13    0    0    0.4192098081E+00    0.1152228191E+00    0.2160367727E+01    0.2208094597E+01    0.1395679712E+00    0    0
 -211    1   13   13    0    0    0.2970190942E+00    0.1161046028E+00    0.1561198950E+01    0.1599538088E+01    0.1395680010E+00    0    0
  211    1   13   13    0    0    0.3703430176E+01    0.3787117600E+00    0.1487184525E+02    0.1533134365E+02    0.1395679712E+00    0    0
  111    1   13   13    0    0    0.1581951499E+01    0.3440007865E+00    0.5640215874E+01    0.5869510651E+01    0.1349639297E+00    0    0
  111    1   13   13    0    0    0.1859054923E+01    0.1237466112E+00    0.7232468605E+01    0.7469820023E+01    0.1349639744E+00    0    0
  111    1   13   13    0    0    0.1214531898E+01    0.2568098605E+00    0.5728499413E+01    0.5863016129E+01    0.1349639893E+00    0    0
  -16    1   11   11    0    0   -0.1365732574E+02   -0.2423813629E+02    0.4823132038E+01    0.2823601151E+02    0.1141863249E-03    0    0
  323    2   11   11    0    0   -0.5113838196E+01   -0.8556982994E+01    0.1490418673E+01    0.1011624241E+02    0.8623880148E+00    0    0
  111    1   21   21    0    0   -0.1996032238E+01   -0.3734978914E+01    0.7969205976E+00    0.4311323166E+01    0.1349640489E+00    0    0
  321    1   21   21    0    0   -0.3117807865E+01   -0.4822007656E+01    0.6934987903E+00    0.5804923058E+01    0.4936671555E+00    0    0
</event>
<event>
   19 9999    1    0.9119999695E+02    0.7565275169E-02    0.1185000000E+00
   11   -1    0    0    0    0    0.0000000000E+00    0.0000000000E+00    0.8000000000E+02    0.8000000000E+02    0.5109988851E-03    0    0
  -11   -1    0    0    0    0    0.0000000000E+00    0.0000000000E+00   -0.8000000000E+02    0.8000000000E+02    0.5109988851E-03    0    0
  -24    2    1    2    0    0   -0.3585494041E+01    0.1105531406E+02    0.1478431511E+02    0.7408736420E+02    0.7166091156E+02    0    0
   24    2    1    2    0    0    0.3585645437E+01   -0.1105505085E+02   -0.1244039726E+02    0.8356871796E+02    0.8181623077E+02    0    0
   22    1    1    2    0    0   -0.1514267060E-03   -0.2635055571E-03   -0.2343917608E+01    0.2343917608E+01    0.0000000000E+00    0    0
   15    2    3    3    0    0   -0.3256393814E+02    0.1764903069E+02    0.2251162529E+02    0.4338005829E+02    0.1777029991E+01    0    0
  -16    1    3    3    0    0    0.2897844505E+02   -0.6593716621E+01   -0.7727311134E+01    0.3070730782E+02    0.0000000000E+00    0    0
   16    1    4    4    0    0   -0.3704980469E+02    0.8999473453E+00    0.5625289917E+01    0.3748522186E+02    0.0000000000E+00    0    0
  -15    2    4    4    0    0    0.4063544846E+02   -0.1195499802E+02   -0.1806568718E+02    0.4608349609E+02    0.1777029991E+01    0    0
   16    1    6    6    0    0   -0.3080641031E+01    0.1623250961E+01    0.2443432093E+01    0.4253898621E+01    0.2283726499E-03    0    0
  -24    2    6    6    0    0   -0.2948458099E+02    0.1602647591E+02    0.2006908035E+02    0.3912786865E+02    0.1426105738E+01    0    0
  111    1   11   11    0    0   -0.7230274200E+01    0.4211378574E+01    0.4661660194E+01    0.9579241753E+01    0.1349640340E+00    0    0
  111    1   11   11    0    0   -0.9833428383E+01    0.5572536945E+01    0.6851109505E+01    0.1321761703E+02    0.1349640340E+00    0    0
 -321    1   11   11    0    0   -0.1242087936E+02    0.6242559910E+01    0.8556311607E+01    0.1633101273E+02    0.4936670363E+00    0    0
  -16    1    9    9    0    0    0.8457267761E+01   -0.2256730080E+01   -0.3531310320E+01    0.9438663483E+01    0.2796982299E-03    0    0
   24    2    9    9    0    0    0.3217977905E+02   -0.9698739052E+01   -0.1453508854E+02    0.3664664841E+02    0.1450554132E+01    0    0
  321    1   16   16    0    0    0.9883159637E+01   -0.3380520105E+01   -0.4483818054E+01    0.1137774563E+02    0.4936669469E+00    0    0
  111    1   16   16    0    0    0.6726940632E+01   -0.1865614653E+01   -0.3071629286E+01    0.7627933502E+01    0.1349631399E+00    0    0
  310    1   16   16    0    0    0.1556968403E+02   -0.4452605247E+01   -0.6979642868E+01    0.1764097214E+02    0.4977199733E+00    0    0
</event>
<event>
   18 9999    1    0.9119999695E+02    0.7565275169E-02    0.1185000000E+00
   11   -1    0    0    0    0    0.0000000000E+00    0.0000000000E+00    0.8000000000E+02    0.8000000000E+02    0.5109988851E-03    0    0
  -11   -1    0    0    0    0    0.0000000000E+00    0.0000000000E+00   -0.8000000000E+02    0.8000000000E+02    0.5109988851E-03    0    0
  -24    2    1    2    0    0   -0.1218468571E+02   -0.1611054420E+02   -0.1098422241E+02    0.7684886932E+02    0.7332856750E+02    0    0
   24    2    1    2    0    0    0.1218412590E+02    0.1610988426E+02    0.1104224396E+02    0.8309291840E+02    0.7984059143E+02    0    0
   22    1    1    2    0    0    0.1073900785E-04   -0.5061211050E-04   -0.5607205629E-01    0.5607208237E-01    0.0000000000E+00    0    0
   22    1    1    2    0    0    0.5491075572E-03    0.7090607542E-03   -0.1949661644E-02    0.2146035200E-02    0.0000000000E+00    0    0
   15    2    3    3    0    0    0.5790439248E+00   -0.3926522827E+02    0.1274321556E+02    0.4132361221E+02    0.1777029991E+01    0    0
  -16    1    3    3    0    0   -0.1276373005E+02    0.2315468597E+02   -0.2372743797E+02    0.3552525330E+02    0.0000000000E+00    0    0
   16    1    4    4    0    0    0.3052202988E+02   -0.4870068073E+01    0.3471960449E+02    0.4648400497E+02    0.0000000000E+00    0    0
  -15    2    4    4    0    0   -0.1833790398E+02    0.2097995377E+02   -0.2367736053E+02    0.3660890961E+02    0.1777029991E+01    0    0
   16    1    7    7    0    0    0.3123958707E+00   -0.1160386848E+02    0.3746668816E+01    0.1219774055E+02    0.2163306781E-03    0    0
  -24    2    7    7    0    0    0.2666708529E+00   -0.2766290855E+02    0.8997048378E+01    0.2912749863E+02    0.1468583465E+01    0    0
 -321    1   12   12    0    0    0.3689950705E+00   -0.1167786026E+02    0.3371518850E+01    0.1217043209E+02    0.4936670065E+00    0    0
 -211    1   12   12    0    0   -0.2393582314E+00   -0.5894086838E+01    0.2241533041E+01    0.6312012672E+01    0.1395678818E+00    0    0
  211    1   12   12    0    0    0.1370340288E+00   -0.1009096146E+02    0.3383996964E+01    0.1064505577E+02    0.1395680457E+00    0    0
  -16    1   10   10    0    0   -0.1326185799E+02    0.1456681156E+02   -0.1624964523E+02    0.2553663826E+02    0.1726334885E-03    0    0
  -13    1   10   10    0    0   -0.5089795589E+01    0.6324758530E+01   -0.7376191616E+01    0.1096940994E+02    0.1056588888E+00    0    0
   14    1   10   10    0    0    0.1302741468E-01    0.8920889348E-01   -0.5245475471E-01    0.1043046415E+00    0.1251313806E-03    0    0
</event>
<event>
   23 9999    1    0.9119999695E+02    0.7565275169E-02    0.1185000000E+00
   11   -1    0    0    0    0    0.0000000000E+00    0.0000000000E+00    0.8000000000E+02    0.8000000000E+02    0.5109988851E-03    0    0
  -11   -1    0    0    0    0    0.0000000000E+00    0.0000000000E+00   -0.8000000000E+02    0.8000000000E+02    0.5109988851E-03    0    0
  -24    2    1    2    0    0   -0.1348968506E+02    0.1794889450E+02    0.2013739777E+02    0.7598046112E+02    0.6973794556E+02    0    0
   24    2    1    2    0    0    0.1348227787E+02   -0.1793800926E+02   -0.2056382179E+02    0.8359183502E+02    0.7785358429E+02    0    0
   22    1    1    2    0    0    0.7407275494E-02   -0.1088446192E-01    0.4269616306E+00    0.4271645844E+00    0.0000000000E+00    0    0
   22    1    1    2    0    0    0.8229601889E-08   -0.2971845658E-08   -0.5374486791E-03    0.5374486791E-03    0.0000000000E+00    0    0
   15    2    3    3    0    0   -0.3314196396E+02    0.8867426872E+01    0.3552595139E+02    0.4941934967E+02    0.1777029991E+01    0    0
  -16    1    3    3    0    0    0.1965228081E+02    0.9081467628E+01   -0.1538855267E+02    0.2656111336E+02    0.0000000000E+00    0    0
   16    1    4    4    0    0   -0.2641874886E+02   -0.1287014103E+02   -0.3025856781E+02    0.4218022919E+02    0.0000000000E+00    0    0
  -15    2    4    4    0    0    0.3990102768E+02   -0.5067868710E+01    0.9694746017E+01    0.4141160583E+02    0.1777029991E+01    0    0
   16    1    7    7    0    0   -0.1191268063E+02    0.2875471830E+01    0.1234825325E+02    0.1739711571E+02    0.1495049946E-03    0    0
  -24    2    7    7    0    0   -0.2123058891E+02    0.5992303848E+01    0.2317909622E+02    0.3202417755E+02    0.1277463198E+01    0    0
 -211    1   12   12    0    0   -0.9122455120E+00    0.3420207798E+00    0.1149453998E+01    0.1513239503E+01    0.1395679563E+00    0    0
 -211    1   12   12    0    0   -0.1912230134E+01    0.6334674954E+00    0.2067526817E+01    0.2889991522E+01    0.1395681649E+00    0    0
  211    1   12   12    0    0   -0.1193837261E+02    0.3317205191E+01    0.1282133865E+02    0.1783072662E+02    0.1395680457E+00    0    0
  111    1   12   12    0    0   -0.2755809546E+01    0.6389536262E+00    0.3156103373E+01    0.4240513325E+01    0.1349639595E+00    0    0
  111    1   12   12    0    0   -0.3711932182E+01    0.1060657024E+01    0.3984673738E+01    0.5549709320E+01    0.1349639595E+00    0    0
  -16    1   10   10    0    0    0.6859368801E+01   -0.1067567825E+01    0.1973675489E+01    0.7217065811E+01    0.3452669771E-03    0    0
   24    2   10   10    0    0    0.3304322815E+02   -0.4000500679E+01    0.7721452236E+01    0.3419617081E+02    0.1377801299E+01    0    0
  211    1   19   19    0    0    0.1263657093E+01   -0.1860771924E+00    0.4685042202E+00    0.1367636442E+01    0.1395684332E+00    0    0
  211    1   19   19    0    0    0.1856143951E+02   -0.1955691695E+01    0.4097097397E+01    0.1910909271E+02    0.1395681202E+00    0    0
 -211    1   19   19    0    0    0.4817471981E+01   -0.6862385869E+00    0.1108282089E+01    0.4992667675E+01    0.1395680159E+00    0    0
  111    1   19   19    0    0    0.8400664330E+01   -0.1172493696E+01    0.2047569513E+01    0.8726778030E+01    0.1349639744E+00    0    0
</event>
<event>
   15 9999    1    0.9119999695E+02    0.7565275169E-02    0.1185000000E+00
   11   -1    0    0    0    0    0.0000000000E+00    0.0000000000E+00    0.8000000000E+02    0.8000000000E+02    0.5109988851E-03    0    0
  -11   -1    0    0    0    0    0.0000000000E+00    0.0000000000E+00   -0.8000000000E+02    0.8000000000E+02    0.5109988851E-03    0    0
  -24    2    1    2    0    0   -0.3371124864E+00   -0.2544871569E+01   -0.7447409153E+01    0.8192676544E+02    0.8154717255E+02    0    0
   24    2    1    2    0    0    0.3371126056E+00    0.2544871330E+01    0.7447409153E+01    0.7807323456E+02    0.7767481232E+02    0    0
   15    2    3    3    0    0   -0.2265824127E+02    0.8848639488E+01    0.2887549019E+02    0.3779743576E+02    0.1777029991E+01    0    0
  -16    1    3    3    0    0    0.2232112885E+02   -0.1139351082E+02   -0.3632289886E+02    0.4412932968E+02    0.0000000000E+00    0    0
   16    1    4    4    0    0    0.3000595474E+02   -0.1813677597E+02    0.1923792267E+02    0.3999246979E+02    0.0000000000E+00    0    0
  -15    2    4    4    0    0   -0.2966884041E+02    0.2068164825E+02   -0.1179051208E+02    0.3808076477E+02    0.1777029991E+01    0    0
   16    1    5    5    0    0   -0.1265023136E+02    0.4743909836E+01    0.1725044823E+02    0.2191143417E+02    0.0000000000E+00    0    0
   11    1    5    5    0    0   -0.9848568916E+01    0.4095688343E+01    0.1147971439E+02    0.1567012501E+02    0.5459150416E-03    0    0
  -12    1    5    5    0    0   -0.1603331715E+00    0.9390171617E-02    0.1464659423E+00    0.2173641473E+00    0.2642899744E-04    0    0
  -16    1    8    8    0    0   -0.2290976524E+02    0.1598748589E+02   -0.9308897972E+01    0.2944677544E+02    0.1364787604E-03    0    0
  213    2    8    8    0    0   -0.6760242939E+01    0.4694975376E+01   -0.2482078791E+01    0.8635487556E+01    0.8168537021E+00    0    0
  211    1   13   13    0    0   -0.2612128496E+01    0.2116853476E+01   -0.7174515724E+00    0.3440711975E+01    0.1395682245E+00    0    0
  111    1   13   13    0    0   -0.4148116112E+01    0.2578122854E+01   -0.1764627934E+01    0.5194777489E+01    0.1349643320E+00    0    0
</event>
<event>
   23 9999    1    0.9119999695E+02    0.7565275169E-02    0.1185000000E+00
   11   -1    0    0    0    0    0.0000000000E+00    0.0000000000E+00    0.8000000000E+02    0.8000000000E+02    0.5109988851E-03    0    0
  -11   -1    0    0    0    0    0.0000000000E+00    0.0000000000E+00   -0.8000000000E+02    0.8000000000E+02    0.5109988851E-03    0    0
  -24    2    1    2    0    0   -0.3880140066E+01   -0.9316277504E+01    0.1767619896E+02    0.8269780731E+02    0.8015379333E+02    0    0
   24    2    1    2    0    0    0.3880140066E+01    0.9316277504E+01   -0.1767619896E+02    0.7730219269E+02    0.7457434082E+02    0    0
   15    2    3    3    0    0   -0.2910312462E+02   -0.3350152588E+02    0.1754545975E+02    0.4775296021E+02    0.1777029991E+01    0    0
  -16    1    3    3    0    0    0.2522298431E+02    0.2418524933E+02    0.1307400912E+00    0.3494484711E+02    0.0000000000E+00    0    0
   16    1    4    4    0    0   -0.2606773758E+02    0.2839303970E+02   -0.1593114853E+02    0.4170723343E+02    0.0000000000E+00    0    0
  -15    2    4    4    0    0    0.2994787788E+02   -0.1907676315E+02   -0.1745051146E+01    0.3559496307E+02    0.1777029991E+01    0    0
   16    1    5    5    0    0   -0.8429508209E+01   -0.9958868027E+01    0.5128629684E+01    0.1401921844E+02    0.3990691039E-03    0    0
  -24    2    5    5    0    0   -0.2067476273E+02   -0.2354397774E+02    0.1241752052E+02    0.3373562241E+02    0.1460340381E+01    0    0
 -211    1   10   10    0    0   -0.4378876209E+01   -0.4815491676E+01    0.2745720863E+01    0.7065548897E+01    0.1395680159E+00    0    0
 -211    1   10   10    0    0   -0.2574211359E+01   -0.3081683636E+01    0.1848797560E+01    0.4422767162E+01    0.1395680159E+00    0    0
  211    1   10   10    0    0   -0.3806297541E+01   -0.4185267925E+01    0.2108201981E+01    0.6038904190E+01    0.1395680457E+00    0    0
  111    1   10   10    0    0   -0.3329929352E+01   -0.3469773054E+01    0.1784905791E+01    0.5131457806E+01    0.1349640340E+00    0    0
  111    1   10   10    0    0   -0.6585448265E+01   -0.7991763115E+01    0.3929894924E+01    0.1107694435E+02    0.1349640191E+00    0    0
  -16    1    8    8    0    0    0.2184120655E+01   -0.1426441073E+01   -0.1125180274E+00    0.2611087561E+01    0.1078959303E-04    0    0
   24    2    8    8    0    0    0.2776493645E+02   -0.1765107346E+02   -0.1632601857E+01    0.3298527527E+02    0.1706157565E+01    0    0
  211    1   17   17    0    0    0.5065713406E+01   -0.3051942110E+01   -0.3994089067E+00    0.5929149151E+01    0.1395680308E+00    0    0
  211    1   17   17    0    0    0.2946625948E+01   -0.2086567402E+01   -0.9017497301E-02    0.3613298893E+01    0.1395680159E+00    0    0
 -211    1   17   17    0    0    0.2090250015E+01   -0.1193944335E+01   -0.1171189100E+00    0.2414092779E+01    0.1395680159E+00    0    0
  111    1   17   17    0    0    0.1559639573E+01   -0.1005083561E+01   -0.1052460223E+00    0.1863319755E+01    0.1349640042E+00    0    0
  111    1   17   17    0    0    0.1205776691E+02   -0.7675096989E+01   -0.1067677975E+01    0.1433370113E+02    0.1349639595E+00    0    0
  111    1   17   17    0    0    0.4044941425E+01   -0.2638438702E+01    0.6586746871E-01    0.4831714153E+01    0.1349640042E+00    0    0
</event>
<event>
   19 9999    1    0.9119999695E+02    0.7565275169E-02    0.1185000000E+00
   11   -1    0    0    0    0    0.0000000000E+00    0.0000000000E+00    0.8000000000E+02    0.8000000000E+02    0.5109988851E-03    0    0
  -11   -1    0    0    0    0    0.0000000000E+00    0.0000000000E+00   -0.8000000000E+02    0.8000000000E+02    0.5109988851E-03    0    0
  -24    2    1    2    0    0   -0.2019686699E+02    0.7555099487E+01    0.9486676216E+01    0.8332733154E+02    0.7992780304E+02    0    0
   24    2    1    2    0    0    0.2019686699E+02   -0.7555099487E+01   -0.9486676216E+01    0.7667266846E+02    0.7296374512E+02    0    0
   15    2    3    3    0    0   -0.5083574677E+02   -0.1267453432E+01    0.4959695339E+01    0.5112372971E+02    0.1777029991E+01    0    0
  -16    1    3    3    0    0    0.3063887787E+02    0.8822552681E+01    0.4526980400E+01    0.3220359802E+02    0.0000000000E+00    0    0
   16    1    4    4    0    0   -0.1140086174E+02    0.2707503796E+01    0.2570130539E+02    0.2824654579E+02    0.0000000000E+00    0    0
  -15    2    4    4    0    0    0.3159772873E+02   -0.1026260376E+02   -0.3518798065E+02    0.4842612457E+02    0.1777029991E+01    0    0
   16    1    5    5    0    0   -0.7145923615E+01   -0.5825621486E+00    0.5503199100E+00    0.7190720081E+01    0.4567452997E-03    0    0
  -24    2    5    5    0    0   -0.4369182205E+02   -0.6849411130E+00    0.4409570217E+01    0.4393502045E+02    0.1182127237E+01    0    0
  111    1   10   10    0    0   -0.1687303352E+02   -0.6489162445E+00    0.1784943938E+01    0.1698012352E+02    0.1349640489E+00    0    0
  111    1   10   10    0    0   -0.7516389370E+01   -0.6436640024E-01    0.5447381735E+00    0.7537586689E+01    0.1349638253E+00    0    0
  111    1   10   10    0    0   -0.6984064579E+01   -0.4792189598E-01    0.8322824240E+00    0.7034938812E+01    0.1349640042E+00    0    0
 -211    1   10   10    0    0   -0.1231833172E+02    0.7626339048E-01    0.1247605562E+01    0.1238237095E+02    0.1395680904E+00    0    0
  -16    1    8    8    0    0    0.8409260750E+01   -0.2839931965E+01   -0.9552159309E+01    0.1303934956E+02    0.2179391013E-03    0    0
   24    2    8    8    0    0    0.2318971252E+02   -0.7423075676E+01   -0.2563720894E+02    0.3538868332E+02    0.1492474198E+01    0    0
  130    1   16   16    0    0    0.8210844040E+01   -0.2458667994E+01   -0.8842000008E+01    0.1232443523E+02    0.4977200329E+00    0    0
  211    1   16   16    0    0    0.1699388862E+01   -0.7050630450E+00   -0.2199758291E+01    0.2871141195E+01    0.1395684034E+00    0    0
  130    1   16   16    0    0    0.1327947617E+02   -0.4259343624E+01   -0.1459544659E+02    0.2019309998E+02    0.4977199733E+00    0    0
</event>
<event>
   18 9999    1    0.9119999695E+02    0.7565275169E-02    0.1185000000E+00
   11   -1    0    0    0    0    0.0000000000E+00    0.0000000000E+00    0.8000000000E+02    0.8000000000E+02    0.5109988851E-03    0    0
  -11   -1    0    0    0    0    0.0000000000E+00    0.0000000000E+00   -0.8000000000E+02    0.8000000000E+02    0.5109988851E-03    0    0
  -24    2    1    2    0    0   -0.3514504910E+01   -0.6908379078E+01    0.2300204277E+02    0.7684584808E+02    0.7291168213E+02    0    0
   24    2    1    2    0    0    0.3514503717E+01    0.6908377171E+01   -0.2293854904E+02    0.8309065247E+02    0.7948460388E+02    0    0
   22    1    1    2    0    0    0.1124696723E-05    0.1689481337E-05   -0.6349325925E-01    0.6349325925E-01    0.0000000000E+00    0    0
   15    2    3    3    0    0   -0.1844087982E+02   -0.2892396545E+02   -0.8729926109E+01    0.3544053268E+02    0.1777029991E+01    0    0
  -16    1    3    3    0    0    0.1492637444E+02    0.2201558685E+02    0.3173196793E+02    0.4140531921E+02    0.0000000000E+00    0    0
   16    1    4    4    0    0   -0.2565812588E+01   -0.2378898239E+02    0.1912637901E+02    0.3063196754E+02    0.0000000000E+00    0    0
  -15    2    4    4    0    0    0.6080316067E+01    0.3069735909E+02   -0.4206492615E+02    0.5245869064E+02    0.1777029991E+01    0    0
   16    1    6    6    0    0   -0.2228142023E+01   -0.3322418451E+01   -0.7246748209E+00    0.4065493107E+01    0.1220703125E-03    0    0
   11    1    6    6    0    0   -0.1548283768E+02   -0.2486838341E+02   -0.7859731197E+01    0.3033035088E+02    0.5854286719E-03    0    0
  -12    1    6    6    0    0   -0.7306253314E+00   -0.7343007326E+00   -0.1458636224E+00    0.1046081781E+01    0.1525878906E-03    0    0
  -16    1    9    9    0    0    0.9425867796E+00    0.5337111950E+01   -0.8054677010E+01    0.9708298683E+01    0.3662109375E-03    0    0
   24    2    9    9    0    0    0.5137969017E+01    0.2536145592E+02   -0.3401190567E+02    0.4275245667E+02    0.1166428685E+01    0    0
  211    1   14   14    0    0    0.5263640285E+00    0.2597460270E+01   -0.3532268047E+01    0.4418173313E+01    0.1395681500E+00    0    0
  211    1   14   14    0    0    0.6512886286E+00    0.4052433968E+01   -0.5730585575E+01    0.7050211430E+01    0.1395682395E+00    0    0
 -211    1   14   14    0    0    0.1514680862E+01    0.7898207188E+01   -0.1004909992E+02    0.1287166786E+02    0.1395679563E+00    0    0
  111    1   14   14    0    0    0.2445635557E+01    0.1081335449E+02   -0.1469995403E+02    0.1841240501E+02    0.1349641532E+00    0    0
</event>
<event>
   18 9999    1    0.9119999695E+02    0.7565275169E-02    0.1185000000E+00
   11   -1    0    0    0    0    0.0000000000E+00    0.0000000000E+00    0.8000000000E+02    0.8000000000E+02    0.5109988851E-03    0    0
  -11   -1    0    0    0    0    0.0000000000E+00    0.0000000000E+00   -0.8000000000E+02    0.8000000000E+02    0.5109988851E-03    0    0
  -24    2    1    2    0    0   -0.5019372463E+01   -0.2448877573E+01    0.3489017248E+01    0.7957427979E+02    0.7930133820E+02    0    0
   24    2    1    2    0    0    0.5019394875E+01    0.2448883772E+01   -0.3434536695E+01    0.8037123871E+02    0.8010336304E+02    0    0
   22    1    1    2    0    0   -0.2231775397E-04   -0.6185801340E-05   -0.5448073521E-01    0.5448073894E-01    0.0000000000E+00    0    0
   15    2    3    3    0    0    0.4113392353E+01    0.3765378189E+02    0.5893066883E+01    0.3837464523E+02    0.1777029991E+01    0    0
  -16    1    3    3    0    0   -0.9132764816E+01   -0.4010265732E+02   -0.2404049397E+01    0.4119963837E+02    0.0000000000E+00    0    0
   16    1    4    4    0    0   -0.2502498436E+02   -0.2418913078E+02    0.1271704674E+02    0.3705519104E+02    0.0000000000E+00    0    0
  -15    2    4    4    0    0    0.3004437828E+02    0.2663801384E+02   -0.1615158272E+02    0.4331604767E+02    0.1777029991E+01    0    0
   16    1    6    6    0    0    0.3821898103E+00    0.2110938072E+01    0.4319686890E+00    0.2188315868E+01    0.7234661607E-03    0    0
  -24    2    6    6    0    0    0.3731364012E+01    0.3554432297E+02    0.5461329460E+01    0.3618783569E+02    0.1552871227E+01    0    0
 -211    1   11   11    0    0    0.1452144027E+01    0.1210543346E+02    0.1512656808E+01    0.1228649044E+02    0.1395680159E+00    0    0
 -211    1   11   11    0    0    0.1284994721E+01    0.1140074825E+02    0.1682381034E+01    0.1159647179E+02    0.1395673603E+00    0    0
  211    1   11   11    0    0    0.9943538904E+00    0.1064956379E+02    0.2083709002E+01    0.1089785576E+02    0.1395680606E+00    0    0
  111    1   11   11    0    0   -0.1282424200E-03    0.1388580561E+01    0.1825834513E+00    0.1407020926E+01    0.1349640489E+00    0    0
  -16    1    9    9    0    0    0.1677548027E+02    0.1405865479E+02   -0.8409334183E+01    0.2344737625E+02    0.1220703125E-03    0    0
  -13    1    9    9    0    0    0.7857634544E+01    0.7601786137E+01   -0.4271723747E+01    0.1173832893E+02    0.1056588739E+00    0    0
   14    1    9    9    0    0    0.5412446499E+01    0.4978621483E+01   -0.3471160650E+01    0.8132047653E+01    0.0000000000E+00    0    0
</event>
<event>
   17 9999    1    0.9119999695E+02    0.7565275169E-02    0.1185000000E+00
   11   -1    0    0    0    0    0.0000000000E+00    0.0000000000E+00    0.8000000000E+02    0.8000000000E+02    0.5109988851E-03    0    0
  -11   -1    0    0    0    0    0.0000000000E+00    0.0000000000E+00   -0.8000000000E+02    0.8000000000E+02    0.5109988851E-03    0    0
  -24    2    1    2    0    0   -0.3003240585E+01    0.4333827972E+01    0.1358596230E+02    0.7975180817E+02    0.7840899658E+02    0    0
   24    2    1    2    0    0    0.3003240585E+01   -0.4333827972E+01   -0.1358596230E+02    0.8024819183E+02    0.7891383362E+02    0    0
   15    2    3    3    0    0   -0.4939315319E+01   -0.2183326912E+02    0.3785251999E+02    0.4401203918E+02    0.1777029991E+01    0    0
  -16    1    3    3    0    0    0.1936074615E+01    0.2616709709E+02   -0.2426655579E+02    0.3573976898E+02    0.0000000000E+00    0    0
   16    1    4    4    0    0    0.3059473991E+02   -0.2034987831E+02    0.1269541645E+02    0.3887581635E+02    0.0000000000E+00    0    0
  -15    2    4    4    0    0   -0.2759149933E+02    0.1601605034E+02   -0.2628137970E+02    0.4137237549E+02    0.1777029991E+01    0    0
   16    1    5    5    0    0   -0.2699189186E+01   -0.1403157139E+02    0.2361137962E+02    0.2759833145E+02    0.2283726499E-03    0    0
 -323    2    5    5    0    0   -0.2240320206E+01   -0.7802556515E+01    0.1424262810E+02    0.1641543770E+02    0.8457176685E+00    0    0
 -211    1   10   10    0    0   -0.5907355547E+00   -0.2358306170E+01    0.3796190023E+01    0.4510112286E+01    0.1395680010E+00    0    0
  130    1   10   10    0    0   -0.1649585009E+01   -0.5444252968E+01    0.1044644165E+02    0.1190533066E+02    0.4977200925E+00    0    0
  -16    1    8    8    0    0   -0.7082541943E+01    0.4308632374E+01   -0.6889258385E+01    0.1077908134E+02    0.5336214672E-03    0    0
   24    2    8    8    0    0   -0.2051004410E+02    0.1170804691E+02   -0.1939315414E+02    0.3059492111E+02    0.1488127351E+01    0    0
  211    1   14   14    0    0   -0.4132352352E+01    0.2429386854E+01   -0.3350718498E+01    0.5850217819E+01    0.1395680159E+00    0    0
  310    1   14   14    0    0   -0.9728827477E+01    0.5312438965E+01   -0.9558775902E+01    0.1464547729E+02    0.4977201223E+00    0    0
  111    1   14   14    0    0   -0.6648864269E+01    0.3966222048E+01   -0.6483661175E+01    0.1009922695E+02    0.1349639446E+00    0    0
</event>
<event>
   22 9999    1    0.9119999695E+02    0.7565275169E-02    0.1185000000E+00
   11   -1    0    0    0    0    0.0000000000E+00    0.0000000000E+00    0.8000000000E+02    0.8000000000E+02    0.5109988851E-03    0    0
  -11   -1    0    0    0    0    0.0000000000E+00    0.0000000000E+00   -0.8000000000E+02    0.8000000000E+02    0.5109988851E-03    0    0
  -24    2    1    2    0    0    0.7536126614E+01   -0.5363569260E+01   -0.2422625303E+01    0.8132855225E+02    0.8076448822E+02    0    0
   24    2    1    2    0    0   -0.7536258698E+01    0.5363531113E+01    0.2424571753E+01    0.7866949463E+02    0.7808615875E+02    0    0
   22    1    1    2    0    0    0.1319166622E-03    0.3829031266E-04   -0.1946473261E-02    0.1951314043E-02    0.0000000000E+00    0    0
   15    2    3    3    0    0    0.3687355423E+02   -0.2184514809E+02    0.1226226902E+02    0.4461379623E+02    0.1777029991E+01    0    0
  -16    1    3    3    0    0   -0.2933742905E+02    0.1648157883E+02   -0.1468489456E+02    0.3671475601E+02    0.0000000000E+00    0    0
   16    1    4    4    0    0    0.2764457130E+02   -0.2070977783E+02   -0.2135584831E+01    0.3460748291E+02    0.0000000000E+00    0    0
  -15    2    4    4    0    0   -0.3518083191E+02    0.2607330894E+02    0.4560156345E+01    0.4406201553E+02    0.1777029991E+01    0    0
   16    1    6    6    0    0    0.3200100422E+01   -0.1871047974E+01    0.1421481013E+01    0.3970147610E+01    0.6042172317E-03    0    0
*****    2    6    6    0    0    0.3367490387E+02   -0.1997495842E+02    0.1084127045E+02    0.4064540100E+02    0.1231782436E+01    0    0
 -211    1   11   11    0    0    0.1542821026E+02   -0.9414154053E+01    0.4959895611E+01    0.1874235916E+02    0.1395679116E+00    0    0
 -211    1   11   11    0    0    0.1090811253E+02   -0.6735196590E+01    0.3473268509E+01    0.1328280354E+02    0.1395686120E+00    0    0
  211    1   11   11    0    0    0.7338572979E+01   -0.3825603724E+01    0.2408103466E+01    0.8620228767E+01    0.1395680457E+00    0    0
  -16    1    9    9    0    0   -0.2108773232E+01    0.1721062064E+01    0.1710433364E+00    0.2727312803E+01    0.6103515625E-04    0    0
   24    2    9    9    0    0   -0.3307344055E+02    0.2435327339E+02    0.4389292717E+01    0.4133643341E+02    0.1581325054E+01    0    0
  211    1   16   16    0    0   -0.1049536133E+02    0.7658858776E+01    0.1255632639E+01    0.1305399609E+02    0.1395679563E+00    0    0
  211    1   16   16    0    0   -0.3880913973E+01    0.2961857319E+01    0.6261031032E+00    0.4923979759E+01    0.1395679712E+00    0    0
  211    1   16   16    0    0   -0.1129267597E+02    0.8257686615E+01    0.1691477537E+01    0.1409235573E+02    0.1395679414E+00    0    0
 -211    1   16   16    0    0   -0.2188784361E+01    0.1597666979E+01    0.2010954916E+00    0.2720888615E+01    0.1395679861E+00    0    0
 -211    1   16   16    0    0   -0.1655926585E+01    0.1037421465E+01    0.1205271557E+00    0.1962738395E+01    0.1395679116E+00    0    0
  111    1   16   16    0    0   -0.3559778929E+01    0.2839781761E+01    0.4944566488E+00    0.4582476139E+01    0.1349639595E+00    0    0
</event>
<event>
   21 9999    1    0.9119999695E+02    0.7565275169E-02    0.1185000000E+00
   11   -1    0    0    0    0    0.0000000000E+00    0.0000000000E+00    0.8000000000E+02    0.8000000000E+02    0.5109988851E-03    0    0
  -11   -1    0    0    0    0    0.0000000000E+00    0.0000000000E+00   -0.8000000000E+02    0.8000000000E+02    0.5109988851E-03    0    0
  -24    2    1    2    0    0   -0.9888270378E+01   -0.1357321453E+02    0.1388092422E+02    0.8114600372E+02    0.7816638184E+02    0    0
   24    2    1    2    0    0    0.1006505013E+02    0.1341925049E+02   -0.1314746284E+02    0.7808398438E+02    0.7511904907E+02    0    0
   22    1    1    2    0    0   -0.1767797917E+00    0.1539643705E+00   -0.7334610224E+00    0.7700137496E+00    0.0000000000E+00    0    0
   15    2    3    3    0    0   -0.2428282738E+02   -0.4072512054E+02    0.5711361393E-01    0.4744841766E+02    0.1777029991E+01    0    0
  -16    1    3    3    0    0    0.1439455700E+02    0.2715190697E+02    0.1382381058E+02    0.3369758224E+02    0.0000000000E+00    0    0
   16    1    4    4    0    0    0.2786835098E+02    0.7182053566E+01    0.2324079514E+02    0.3699137115E+02    0.0000000000E+00    0    0
  -15    2    4    4    0    0   -0.1762037659E+02    0.6355875969E+01   -0.3550171280E+02    0.4017964935E+02    0.1777029991E+01    0    0
   22    1    4    4    0    0   -0.1829246134E+00   -0.1186790243E+00   -0.8865444064E+00    0.9129661322E+00    0.0000000000E+00    0    0
   16    1    6    6    0    0   -0.7124483585E+00   -0.1212396145E+01    0.8201643825E-01    0.1408621430E+01    0.4963212996E-03    0    0
  -24    2    6    6    0    0   -0.2357133484E+02   -0.3951432800E+02   -0.2490057424E-01    0.4604166412E+02    0.1686480761E+01    0    0
 -211    1   12   12    0    0   -0.5605852127E+01   -0.9880134583E+01    0.1990468502E+00    0.1136229420E+02    0.1395677924E+00    0    0
 -211    1   12   12    0    0   -0.4967401981E+01   -0.7871679306E+01    0.2829159498E+00    0.9313320160E+01    0.1395676136E+00    0    0
  211    1   12   12    0    0   -0.6519246578E+01   -0.1115937996E+02   -0.6063438058E+00    0.1293906784E+02    0.1395675391E+00    0    0
  111    1   12   12    0    0   -0.6478833199E+01   -0.1060313320E+02    0.9948046505E-01    0.1242698002E+02    0.1349640191E+00    0    0
  -16    1    9    9    0    0   -0.2587884188E+01    0.1220205307E+01   -0.4628426075E+01    0.5441356659E+01    0.3452669771E-03    0    0
20213    2    9    9    0    0   -0.1503313828E+02    0.5135903835E+01   -0.3087459183E+02    0.3473976135E+02    0.1112814426E+01    0    0
  211    1   18   18    0    0   -0.3909420490E+01    0.1002758741E+01   -0.7930057526E+01    0.8899121284E+01    0.1395679861E+00    0    0
  211    1   18   18    0    0   -0.4473302364E+01    0.1541083097E+01   -0.9766855240E+01    0.1085339928E+02    0.1395676583E+00    0    0
 -211    1   18   18    0    0   -0.6650415897E+01    0.2592062235E+01   -0.1317768002E+02    0.1498724365E+02    0.1395678818E+00    0    0
</event>
<event>
   21 9999    1    0.9119999695E+02    0.7565275169E-02    0.1185000000E+00
   11   -1    0    0    0    0    0.0000000000E+00    0.0000000000E+00    0.8000000000E+02    0.8000000000E+02    0.5109988851E-03    0    0
  -11   -1    0    0    0    0    0.0000000000E+00    0.0000000000E+00   -0.8000000000E+02    0.8000000000E+02    0.5109988851E-03    0    0
  -24    2    1    2    0    0   -0.5244644642E+01   -0.9911029816E+01    0.8657780647E+01    0.7832565308E+02    0.7703385925E+02    0    0
   24    2    1    2    0    0    0.5244639397E+01    0.9910964966E+01   -0.8698512077E+01    0.8163362122E+02    0.8039060974E+02    0    0
   22    1    1    2    0    0    0.4947769867E-05    0.6595040031E-04    0.3014044836E-01    0.3014052100E-01    0.0000000000E+00    0    0
   22    1    1    2    0    0    0.4973588830E-07   -0.1041680775E-05    0.1059105806E-01    0.1059105806E-01    0.0000000000E+00    0    0
   15    2    3    3    0    0    0.1024081230E+02   -0.1582530499E+02    0.3922368622E+02    0.4355421829E+02    0.1777029991E+01    0    0
  -16    1    3    3    0    0   -0.1548545647E+02    0.5914274693E+01   -0.3056590462E+02    0.3477143478E+02    0.0000000000E+00    0    0
   16    1    4    4    0    0    0.1897039223E+02   -0.2714507294E+02    0.1408196068E+02    0.3598655701E+02    0.0000000000E+00    0    0
  -15    2    4    4    0    0   -0.1372575188E+02    0.3705603790E+02   -0.2278047180E+02    0.4564706039E+02    0.1777029991E+01    0    0
   16    1    7    7    0    0    0.2970346451E+01   -0.4601171494E+01    0.1228307819E+02    0.1344870853E+02    0.3452669771E-03    0    0
  -24    2    7    7    0    0    0.7270868778E+01   -0.1122475624E+02    0.2694215012E+02    0.3010722351E+02    0.1305649042E+01    0    0
 -321    1   12   12    0    0    0.2935350657E+01   -0.3770641327E+01    0.9290304184E+01    0.1045884705E+02    0.4936670959E+00    0    0
 -211    1   12   12    0    0    0.2905673504E+01   -0.5010640621E+01    0.1169392395E+02    0.1305054760E+02    0.1395676583E+00    0    0
  211    1   12   12    0    0    0.1429844141E+01   -0.2443473816E+01    0.5957921028E+01    0.6597826958E+01    0.1395680159E+00    0    0
  -16    1   10   10    0    0   -0.3092603683E+00    0.1262744427E+01   -0.5882275105E+00    0.1426946759E+01    0.1977765060E-03    0    0
   24    2   10   10    0    0   -0.1341703320E+02    0.3579475403E+02   -0.2219314194E+02    0.4422191238E+02    0.1326898336E+01    0    0
  211    1   17   17    0    0   -0.2343129396E+01    0.7126037121E+01   -0.4284334660E+01    0.8639772415E+01    0.1395680010E+00    0    0
  211    1   17   17    0    0   -0.3533034801E+01    0.9884239197E+01   -0.6404005051E+01    0.1229679966E+02    0.1395680457E+00    0    0
 -211    1   17   17    0    0   -0.4891244411E+01    0.1228059387E+02   -0.7407071590E+01    0.1515326595E+02    0.1395680606E+00    0    0
  111    1   17   17    0    0   -0.2649626017E+01    0.6503887177E+01   -0.4097733498E+01    0.8132079124E+01    0.1349640042E+00    0    0
</event>
<event>
   18 9999    1    0.9119999695E+02    0.7565275169E-02    0.1185000000E+00
   11   -1    0    0    0    0    0.0000000000E+00    0.0000000000E+00    0.8000000000E+02    0.8000000000E+02    0.5109988851E-03    0    0
  -11   -1    0    0    0    0    0.0000000000E+00    0.0000000000E+00   -0.8000000000E+02    0.8000000000E+02    0.5109988851E-03    0    0
  -24    2    1    2    0    0   -0.1466676116E+01   -0.1688313961E+01   -0.1682907295E+02    0.7663739014E+02    0.7473332214E+02    0    0
   24    2    1    2    0    0    0.1528580427E+01    0.1841761351E+01    0.1736405754E+02    0.8280262756E+02    0.8092610931E+02    0    0
   22    1    1    2    0    0   -0.6190431491E-01   -0.1534473896E+00   -0.5349832177E+00    0.5599868894E+00    0.0000000000E+00    0    0
   15    2    3    3    0    0   -0.1682204628E+02    0.2576133919E+02    0.1285213184E+02    0.3339105988E+02    0.1777029991E+01    0    0
  -16    1    3    3    0    0    0.1535536957E+02   -0.2744965172E+02   -0.2968120575E+02    0.4324632645E+02    0.0000000000E+00    0    0
   16    1    4    4    0    0    0.1570145798E+02    0.3051316261E+02    0.3259912872E+02    0.4733172226E+02    0.0000000000E+00    0    0
  -15    2    4    4    0    0   -0.1417287731E+02   -0.2867140198E+02   -0.1523507118E+02    0.3547090149E+02    0.1777029991E+01    0    0
   16    1    6    6    0    0   -0.9585803986E+01    0.1574589252E+02    0.7796778202E+01    0.2001525688E+02    0.1034901434E-03    0    0
 -323    2    6    6    0    0   -0.7236904144E+01    0.1001646137E+02    0.5055860043E+01    0.1337711906E+02    0.8266254067E+00    0    0
  111    1   11   11    0    0   -0.3348703623E+01    0.4913610935E+01    0.2286477566E+01    0.6372094154E+01    0.1349639744E+00    0    0
 -321    1   11   11    0    0   -0.3888201237E+01    0.5102850437E+01    0.2769382715E+01    0.7005025387E+01    0.4936670363E+00    0    0
  -16    1    9    9    0    0   -0.3238834381E+01   -0.6587217808E+01   -0.3847073317E+01    0.8287427902E+01    0.3860202269E-03    0    0
   24    2    9    9    0    0   -0.1093460178E+02   -0.2208531380E+02   -0.1138859844E+02    0.2718487167E+02    0.1410870671E+01    0    0
  211    1   15   15    0    0   -0.2204638243E+01   -0.3788087368E+01   -0.1962833047E+01    0.4804396629E+01    0.1395679861E+00    0    0
  130    1   15   15    0    0   -0.3086345196E+01   -0.6334550858E+01   -0.3001842022E+01    0.7675339699E+01    0.4977200925E+00    0    0
  111    1   15   15    0    0   -0.5643617630E+01   -0.1196267414E+02   -0.6423922539E+01    0.1470513439E+02    0.1349641830E+00    0    0
</event>
<event>
   17 9999    1    0.9119999695E+02    0.7565275169E-02    0.1185000000E+00
   11   -1    0    0    0    0    0.0000000000E+00    0.0000000000E+00    0.8000000000E+02    0.8000000000E+02    0.5109988851E-03    0    0
  -11   -1    0    0    0    0    0.0000000000E+00    0.0000000000E+00   -0.8000000000E+02    0.8000000000E+02    0.5109988851E-03    0    0
  -24    2    1    2    0    0   -0.4005879909E-01   -0.5897476673E+01    0.2481039762E+01    0.8026238251E+02    0.8000695038E+02    0    0
   24    2    1    2    0    0    0.4005887359E-01    0.5897476196E+01   -0.2480918169E+01    0.7973749542E+02    0.7948038483E+02    0    0
   22    1    1    2    0    0   -0.7330655905E-07    0.6779085027E-07   -0.1214297954E-03    0.1214298391E-03    0.0000000000E+00    0    0
   15    2    3    3    0    0   -0.2610961914E+02   -0.4712431431E+01    0.3150811577E+02    0.4122909546E+02    0.1777029991E+01    0    0
  -16    1    3    3    0    0    0.2606956100E+02   -0.1185045004E+01   -0.2902707672E+02    0.3903328705E+02    0.0000000000E+00    0    0
   16    1    4    4    0    0   -0.3937855530E+02    0.4358421326E+01    0.3604707956E+01    0.3978266525E+02    0.0000000000E+00    0    0
  -15    2    4    4    0    0    0.3941861343E+02    0.1539055109E+01   -0.6085626125E+01    0.3995483017E+02    0.1777029991E+01    0    0
   16    1    6    6    0    0   -0.3890648603E+01   -0.5917699933E+00    0.5144330025E+01    0.6476995468E+01    0.3860202269E-03    0    0
  -24    2    6    6    0    0   -0.2221999931E+02   -0.4120847225E+01    0.2636502647E+02    0.3475372314E+02    0.1413168788E+01    0    0
  130    1   11   11    0    0   -0.7205837250E+01   -0.1102388740E+01    0.8623254776E+01    0.1130254841E+02    0.4977200329E+00    0    0
 -211    1   11   11    0    0   -0.4917335033E+01   -0.1131218791E+01    0.6106109142E+01    0.7922366142E+01    0.1395683885E+00    0    0
  310    1   11   11    0    0   -0.1009682751E+02   -0.1887239814E+01    0.1163566399E+02    0.1552881241E+02    0.4977200329E+00    0    0
  -16    1    9    9    0    0    0.1941673470E+02    0.1503223479E+00   -0.2345946074E+01    0.1955851364E+02    0.1726334885E-03    0    0
  211    1    9    9    0    0    0.1969240379E+02    0.1367519498E+01   -0.3685385942E+01    0.2008139992E+02    0.1395678520E+00    0    0
   22    1    9    9    0    0    0.3094747663E+00    0.2121332660E-01   -0.5429401994E-01    0.3149166405E+00    0.0000000000E+00    0    0
</event>
<event>
   18 9999    1    0.9119999695E+02    0.7565275169E-02    0.1185000000E+00
   11   -1    0    0    0    0    0.0000000000E+00    0.0000000000E+00    0.8000000000E+02    0.8000000000E+02    0.5109988851E-03    0    0
  -11   -1    0    0    0    0    0.0000000000E+00    0.0000000000E+00   -0.8000000000E+02    0.8000000000E+02    0.5109988851E-03    0    0
  -24    2    1    2    0    0   -0.8036368370E+01    0.7236613750E+01    0.9020156860E+01    0.7810852051E+02    0.7682855225E+02    0    0
   24    2    1    2    0    0    0.8036391258E+01   -0.7236618042E+01   -0.8776407242E+01    0.8164559937E+02    0.8044890594E+02    0    0
   22    1    1    2    0    0   -0.2089676491E-04    0.6599067092E-05   -0.2448138446E+00    0.2448138446E+00    0.0000000000E+00    0    0
   22    1    1    2    0    0   -0.2459917596E-05   -0.2162694500E-05    0.1064786571E-02    0.1064791577E-02    0.0000000000E+00    0    0
   15    2    3    3    0    0    0.3036970711E+02    0.1211344361E+01   -0.1336319923E+02    0.3324935150E+02    0.1777029991E+01    0    0
  -16    1    3    3    0    0   -0.3840607452E+02    0.6025269508E+01    0.2238335609E+02    0.4485916901E+02    0.0000000000E+00    0    0
   16    1    4    4    0    0   -0.1431472874E+02   -0.3807738495E+02   -0.1429643250E+02    0.4311828613E+02    0.0000000000E+00    0    0
  -15    2    4    4    0    0    0.2235112000E+02    0.3084076500E+02    0.5520025253E+01    0.3852731323E+02    0.1777029991E+01    0    0
   16    1    7    7    0    0    0.1065620613E+02    0.5527454242E-01   -0.4694834232E+01    0.1164470959E+02    0.1741337182E-03    0    0
  -24    2    7    7    0    0    0.1971469879E+02    0.1156117558E+01   -0.8668890953E+01    0.2160595322E+02    0.1289030790E+01    0    0
  111    1   12   12    0    0    0.9976655841E+00    0.7421619445E-01   -0.6412934661E+00    0.1195958734E+01    0.1349641532E+00    0    0
  111    1   12   12    0    0    0.7624693871E+01    0.6371870637E+00   -0.3214730740E+01    0.8300281525E+01    0.1349632293E+00    0    0
 -321    1   12   12    0    0    0.1109233952E+02    0.4447143972E+00   -0.4812867641E+01    0.1210971355E+02    0.4936670065E+00    0    0
  -16    1   10   10    0    0    0.1807393789E+01    0.2665918112E+01    0.4663536698E-01    0.3221174717E+01    0.2729575208E-03    0    0
  -11    1   10   10    0    0    0.1557931423E+02    0.2117048645E+02    0.3779707432E+01    0.2655542755E+02    0.4523272219E-03    0    0
   12    1   10   10    0    0    0.4965290546E+01    0.7005572319E+01    0.1693899512E+01    0.8752225876E+01    0.1220703125E-03    0    0
</event>
<event>
   17 9999    1    0.9119999695E+02    0.7565275169E-02    0.1185000000E+00
   11   -1    0    0    0    0    0.0000000000E+00    0.0000000000E+00    0.8000000000E+02    0.8000000000E+02    0.5109988851E-03    0    0
  -11   -1    0    0    0    0    0.0000000000E+00    0.0000000000E+00   -0.8000000000E+02    0.8000000000E+02    0.5109988851E-03    0    0
  -24    2    1    2    0    0    0.1975156784E+02    0.7454317093E+01    0.6177953243E+01    0.7788565826E+02    0.7471490479E+02    0    0
   24    2    1    2    0    0   -0.1975156784E+02   -0.7454317093E+01   -0.6177953243E+01    0.8211434174E+02    0.7911325836E+02    0    0
   15    2    3    3    0    0    0.4296838760E+01    0.3345041275E+02    0.2521767044E+02    0.4214833069E+02    0.1777029991E+01    0    0
  -16    1    3    3    0    0    0.1545472908E+02   -0.2599609566E+02   -0.1903971863E+02    0.3573732758E+02    0.0000000000E+00    0    0
   16    1    4    4    0    0   -0.1800602150E+02    0.3482667542E+02    0.6600323319E+00    0.3921160507E+02    0.0000000000E+00    0    0
  -15    2    4    4    0    0   -0.1745546341E+01   -0.4228099442E+02   -0.6837985516E+01    0.4290274048E+02    0.1777029991E+01    0    0
   16    1    5    5    0    0    0.9884297848E+00    0.8254564285E+01    0.6884420395E+01    0.1079398346E+02    0.2441406250E-03    0    0
  -24    2    5    5    0    0    0.3308578014E+01    0.2519716454E+02    0.1833424377E+02    0.3135600662E+02    0.1100367069E+01    0    0
 -321    1   10   10    0    0    0.1931478977E+01    0.1610919952E+02    0.1168819046E+02    0.2000236130E+02    0.4936669767E+00    0    0
  310    1   10   10    0    0    0.1377099037E+01    0.9087964058E+01    0.6646053314E+01    0.1135364437E+02    0.4977199733E+00    0    0
  -16    1    8    8    0    0   -0.6654255986E+00   -0.1256337357E+02   -0.2566529751E+01    0.1284010220E+02    0.5980199785E-03    0    0
20213    2    8    8    0    0   -0.1080189347E+01   -0.2971928215E+02   -0.4271724224E+01    0.3006432533E+02    0.1101602197E+01    0    0
  211    1   14   14    0    0   -0.4820106626E+00   -0.7163501740E+01   -0.9972644448E+00    0.7249973297E+01    0.1395679712E+00    0    0
  211    1   14   14    0    0   -0.2392970175E+00   -0.7201256275E+01   -0.6965637207E+00    0.7240168571E+01    0.1395679116E+00    0    0
 -211    1   14   14    0    0   -0.3588816524E+00   -0.1535452366E+02   -0.2577896357E+01    0.1557418442E+02    0.1395679712E+00    0    0
</event>
<event>
   19 9999    1    0.9119999695E+02    0.7565275169E-02    0.1185000000E+00
   11   -1    0    0    0    0    0.0000000000E+00    0.0000000000E+00    0.8000000000E+02    0.8000000000E+02    0.5109988851E-03    0    0
  -11   -1    0    0    0    0    0.0000000000E+00    0.0000000000E+00   -0.8000000000E+02    0.8000000000E+02    0.5109988851E-03    0    0
  -24    2    1    2    0    0    0.1476509571E+02   -0.1099667835E+02    0.4298093021E+00    0.8156416321E+02    0.7945811462E+02    0    0
   24    2    1    2    0    0   -0.1476401424E+02    0.1099887753E+02   -0.3729205728E+00    0.7837889862E+02    0.7618504333E+02    0    0
   22    1    1    2    0    0   -0.1080645132E-02   -0.2199452603E-02   -0.5688872188E-01    0.5694147944E-01    0.0000000000E+00    0    0
   15    2    3    3    0    0    0.1175643635E+02    0.3240257645E+02    0.1201141930E+02    0.3654548645E+02    0.1777029991E+01    0    0
  -16    1    3    3    0    0    0.3008658648E+01   -0.4339925385E+02   -0.1158161068E+02    0.4501867294E+02    0.0000000000E+00    0    0
   16    1    4    4    0    0    0.2996201324E+02   -0.5703159332E+01   -0.2096592188E+01    0.3057194710E+02    0.0000000000E+00    0    0
  -15    2    4    4    0    0   -0.4472602844E+02    0.1670203781E+02    0.1723671436E+01    0.4780694962E+02    0.1777029991E+01    0    0
   16    1    6    6    0    0    0.2345751524E+01    0.5280726433E+01    0.2156618118E+01    0.6167626858E+01    0.8631674427E-04    0    0
  -24    2    6    6    0    0    0.9411148071E+01    0.2712312317E+02    0.9855274200E+01    0.3037929916E+02    0.1241714358E+01    0    0
 -321    1   11   11    0    0    0.5300468922E+01    0.1587563801E+02    0.5426002979E+01    0.1760159302E+02    0.4936668873E+00    0    0
  130    1   11   11    0    0    0.4110679626E+01    0.1124748707E+02    0.4429271698E+01    0.1277770805E+02    0.4977200031E+00    0    0
  -16    1    9    9    0    0   -0.2090453529E+02    0.7302794456E+01    0.6613793969E+00    0.2215328026E+02    0.4825252690E-03    0    0
   24    2    9    9    0    0   -0.2382325363E+02    0.9399899483E+01    0.1062359929E+01    0.2565555191E+02    0.1083152652E+01    0    0
  111    1   15   15    0    0   -0.4061198235E+01    0.1370869875E+01    0.2205466777E+00    0.4294120789E+01    0.1349638104E+00    0    0
  111    1   15   15    0    0   -0.4656360626E+01    0.1663990378E+01    0.2742841542E+00    0.4954190731E+01    0.1349644065E+00    0    0
  111    1   15   15    0    0   -0.6948818207E+01    0.2794394016E+01    0.1560580730E+00    0.7492481709E+01    0.1349640042E+00    0    0
  211    1   15   15    0    0   -0.8156876564E+01    0.3570645571E+01    0.4114710093E+00    0.8914758682E+01    0.1395681053E+00    0    0
</event>
<event>
   19 9999    1    0.9119999695E+02    0.7565275169E-02    0.1185000000E+00
   11   -1    0    0    0    0    0.0000000000E+00    0.0000000000E+00    0.8000000000E+02    0.8000000000E+02    0.5109988851E-03    0    0
  -11   -1    0    0    0    0    0.0000000000E+00    0.0000000000E+00   -0.8000000000E+02    0.8000000000E+02    0.5109988851E-03    0    0
  -24    2    1    2    0    0    0.1080886722E+01    0.1900055504E+02    0.2449764442E+02    0.7959816742E+02    0.7330445862E+02    0    0
   24    2    1    2    0    0   -0.1431804061E+01   -0.1910348320E+02   -0.2468338966E+02    0.7999166870E+02    0.7363697052E+02    0    0
   22    1    1    2    0    0    0.3509173691E+00    0.1029280499E+00    0.1857437491E+00    0.4101681709E+00    0.0000000000E+00    0    0
   15    2    3    3    0    0    0.1964922523E+02    0.1312624264E+02    0.4528656769E+02    0.5111185074E+02    0.1777029991E+01    0    0
  -16    1    3    3    0    0   -0.1856833839E+02    0.5874312878E+01   -0.2078892326E+02    0.2848631287E+02    0.0000000000E+00    0    0
   16    1    4    4    0    0    0.3516864777E+02   -0.1589160800E+01   -0.1482205868E+02    0.3819754791E+02    0.0000000000E+00    0    0
  -15    2    4    4    0    0   -0.3660045242E+02   -0.1751432228E+02   -0.9861330986E+01    0.4179411697E+02    0.1777029991E+01    0    0
   16    1    6    6    0    0    0.5633215904E+00    0.4245191514E+00    0.1644348264E+01    0.1789253712E+01    0.2516543900E-03    0    0
  -24    2    6    6    0    0    0.1908667755E+02    0.1270223999E+02    0.4364400482E+02    0.4932461166E+02    0.1571637154E+01    0    0
 -321    1   11   11    0    0    0.7504562378E+01    0.4603765011E+01    0.1714483070E+02    0.1927957535E+02    0.4936671555E+00    0    0
 -211    1   11   11    0    0    0.2028609037E+01    0.1694507957E+01    0.5088694572E+01    0.5735930920E+01    0.1395680010E+00    0    0
  321    1   11   11    0    0    0.9553505898E+01    0.6403967381E+01    0.2141048050E+02    0.2430910683E+02    0.4936670661E+00    0    0
  -16    1    9    9    0    0   -0.2510525703E+01   -0.9068822265E+00   -0.5245615840E+00    0.2720356464E+01    0.3836000105E-03    0    0
   24    2    9    9    0    0   -0.3409136963E+02   -0.1660813141E+02   -0.9337157249E+01    0.3907540894E+02    0.1285918117E+01    0    0
  211    1   16   16    0    0   -0.1136328578E+01   -0.5627319217E+00   -0.2786608338E+00    0.1305772305E+01    0.1395689398E+00    0    0
  111    1   16   16    0    0   -0.6884687543E+00   -0.3921971917E+00   -0.1690962166E+00    0.8213505745E+00    0.1349641681E+00    0    0
   22    1   16   16    0    0   -0.3226656723E+02   -0.1565319920E+02   -0.8889398575E+01    0.3694828033E+02    0.1057159898E-03    0    0
</event>
<event>
   23 9999    1    0.9119999695E+02    0.7565275169E-02    0.1185000000E+00
   11   -1    0    0    0    0    0.0000000000E+00    0.0000000000E+00    0.8000000000E+02    0.8000000000E+02    0.5109988851E-03    0    0
  -11   -1    0    0    0    0    0.0000000000E+00    0.0000000000E+00   -0.8000000000E+02    0.8000000000E+02    0.5109988851E-03    0    0
  -24    2    1    2    0    0   -0.4909137249E+01    0.9090150833E+01   -0.1091366673E+02    0.8269348145E+02    0.8131649780E+02    0    0
   24    2    1    2    0    0    0.4909137249E+01   -0.9090150833E+01    0.1091366673E+02    0.7730651855E+02    0.7583178711E+02    0    0
   15    2    3    3    0    0   -0.1593255043E+02    0.2158700180E+02    0.2893561554E+02    0.3950028229E+02    0.1777029991E+01    0    0
  -16    1    3    3    0    0    0.1102341366E+02   -0.1249685001E+02   -0.3984928131E+02    0.4319319534E+02    0.0000000000E+00    0    0
   16    1    4    4    0    0   -0.1089569664E+02    0.1559689903E+02    0.3466115952E+02    0.3953954315E+02    0.0000000000E+00    0    0
  -15    2    4    4    0    0    0.1580483341E+02   -0.2468704987E+02   -0.2374749374E+02    0.3776697540E+02    0.1777029991E+01    0    0
   16    1    5    5    0    0   -0.1648151278E+01    0.2548057079E+01    0.3113165617E+01    0.4347504616E+01    0.6103515625E-04    0    0
  -24    2    5    5    0    0   -0.1428502560E+02    0.1903979301E+02    0.2582358551E+02    0.3515433121E+02    0.1547178388E+01    0    0
 -211    1   10   10    0    0   -0.3851150274E+00    0.4083507359E+00    0.5984277725E+00    0.8322613835E+00    0.1395680904E+00    0    0
 -211    1   10   10    0    0   -0.1565427899E+01    0.2214951277E+01    0.3207538366E+01    0.4202898502E+01    0.1395679414E+00    0    0
 -211    1   10   10    0    0   -0.3693901300E+01    0.5092028141E+01    0.6634311676E+01    0.9143698692E+01    0.1395679563E+00    0    0
  211    1   10   10    0    0   -0.7857563496E+00    0.1065191269E+01    0.1342168808E+01    0.1890222788E+01    0.1395679861E+00    0    0
  211    1   10   10    0    0   -0.3681042433E+01    0.4806041241E+01    0.6768885136E+01    0.9082146645E+01    0.1395679861E+00    0    0
  111    1   10   10    0    0   -0.4173782825E+01    0.5453230381E+01    0.7272255421E+01    0.1000310421E+02    0.1349639744E+00    0    0
  -16    1    8    8    0    0    0.3843338251E+01   -0.6003586292E+01   -0.6100872993E+01    0.9382694244E+01    0.8631674427E-04    0    0
   24    2    8    8    0    0    0.1196211815E+02   -0.1868443680E+02   -0.1764755630E+02    0.2838577080E+02    0.1454397559E+01    0    0
  211    1   18   18    0    0    0.1589676738E+01   -0.2853931427E+01   -0.2695654631E+01    0.4237691402E+01    0.1395680159E+00    0    0
  211    1   18   18    0    0    0.6792619228E+01   -0.1030752850E+02   -0.1006729698E+02    0.1592968273E+02    0.1395679414E+00    0    0
  211    1   18   18    0    0    0.1021271110E+01   -0.1670458436E+01   -0.1667394042E+01    0.2575482130E+01    0.1395679861E+00    0    0
 -211    1   18   18    0    0    0.1865119219E+01   -0.2800342560E+01   -0.2296044588E+01    0.4075768471E+01    0.1395680904E+00    0    0
 -211    1   18   18    0    0    0.6934317946E+00   -0.1052174687E+01   -0.9211667776E+00    0.1567146063E+01    0.1395679861E+00    0    0
</event>
<event>
   17 9999    1    0.9119999695E+02    0.7565275169E-02    0.1185000000E+00
   11   -1    0    0    0    0    0.0000000000E+00    0.0000000000E+00    0.8000000000E+02    0.8000000000E+02    0.5109988851E-03    0    0
  -11   -1    0    0    0    0    0.0000000000E+00    0.0000000000E+00   -0.8000000000E+02    0.8000000000E+02    0.5109988851E-03    0    0
  -24    2    1    2    0    0    0.8576344490E+01   -0.1568735003E+01   -0.9138178825E+01    0.7718069458E+02    0.7614025879E+02    0    0
   24    2    1    2    0    0   -0.8576344490E+01    0.1568735003E+01    0.9138178825E+01    0.8281930542E+02    0.8185057068E+02    0    0
   15    2    3    3    0    0    0.3470840216E+01    0.3049259377E+02    0.1733354187E+02    0.3529099655E+02    0.1777029991E+01    0    0
  -16    1    3    3    0    0    0.5105503559E+01   -0.3206132889E+02   -0.2647171974E+02    0.4188969803E+02    0.0000000000E+00    0    0
   16    1    4    4    0    0    0.4707279205E+01   -0.1430568218E+01    0.4455873108E+02    0.4482951736E+02    0.0000000000E+00    0    0
  -15    2    4    4    0    0   -0.1328362370E+02    0.2999303341E+01   -0.3542055130E+02    0.3798978806E+02    0.1777029991E+01    0    0
   16    1    5    5    0    0    0.3835383356E+00    0.3801256418E+01    0.1855816126E+01    0.4247435093E+01    0.3955530119E-03    0    0
  -24    2    5    5    0    0    0.3087438583E+01    0.2669253731E+02    0.1547840786E+02    0.3104495049E+02    0.1477858186E+01    0    0
  310    1   10   10    0    0    0.6306341290E+00    0.6820665359E+01    0.4092075348E+01    0.7994497299E+01    0.4977200031E+00    0    0
 -211    1   10   10    0    0    0.1403553486E+01    0.1181175232E+02    0.6587611675E+01    0.1359792519E+02    0.1395673603E+00    0    0
  130    1   10   10    0    0    0.1053251624E+01    0.8060125351E+01    0.4798723698E+01    0.9452535629E+01    0.4977200329E+00    0    0
  -16    1    8    8    0    0   -0.2592087030E+01    0.4376106858E+00   -0.8146347046E+01    0.8559987068E+01    0.1220703125E-03    0    0
   24    2    8    8    0    0   -0.1069205856E+02    0.2561810493E+01   -0.2727559853E+02    0.2943129349E+02    0.1166066647E+01    0    0
  321    1   15   15    0    0   -0.6458747387E+01    0.1516468287E+01   -0.1717246056E+02    0.1841608620E+02    0.4936669767E+00    0    0
  130    1   15   15    0    0   -0.4233310699E+01    0.1045342207E+01   -0.1010313702E+02    0.1101520538E+02    0.4977199733E+00    0    0
</event>
<event>
   17 9999    1    0.9119999695E+02    0.7565275169E-02    0.1185000000E+00
   11   -1    0    0    0    0    0.0000000000E+00    0.0000000000E+00    0.8000000000E+02    0.8000000000E+02    0.5109988851E-03    0    0
  -11   -1    0    0    0    0    0.0000000000E+00    0.0000000000E+00   -0.8000000000E+02    0.8000000000E+02    0.5109988851E-03    0    0
  -24    2    1    2    0    0   -0.2026311302E+02    0.3899218082E+01    0.1105892754E+02    0.7709378052E+02    0.7345307159E+02    0    0
   24    2    1    2    0    0    0.2026310730E+02   -0.3899239063E+01   -0.1105624008E+02    0.8290353394E+02    0.7952960205E+02    0    0
   22    1    1    2    0    0    0.4853787232E-05    0.2081677121E-04   -0.1578636933E-02    0.1578781637E-02    0.0000000000E+00    0    0
   22    1    1    2    0    0   -0.1112635672E-07   -0.4791420594E-07   -0.1108570024E-02    0.1108570024E-02    0.0000000000E+00    0    0
   15    2    3    3    0    0    0.8039570451E+00    0.3696931458E+02    0.3776150942E+01    0.3721281433E+02    0.1777029991E+01    0    0
  -16    1    3    3    0    0   -0.2106707001E+02   -0.3307009506E+02    0.7282776356E+01    0.3988096619E+02    0.0000000000E+00    0    0
   16    1    4    4    0    0    0.2423128510E+02    0.1773657990E+02    0.2603497696E+02    0.3974369812E+02    0.0000000000E+00    0    0
  -15    2    4    4    0    0   -0.3968177557E+01   -0.2163581848E+02   -0.3709121704E+02    0.4315983582E+02    0.1777029991E+01    0    0
   16    1    7    7    0    0    0.1247746229E+01    0.2979109192E+02    0.3388059855E+01    0.3000908089E+02    0.1495049946E-03    0    0
 -211    1    7    7    0    0   -0.4437575042E+00    0.7179677963E+01    0.3882398903E+00    0.7205200195E+01    0.1395678818E+00    0    0
  -16    1   10   10    0    0   -0.2219218016E+00   -0.3571078777E+00   -0.5122350454E+00    0.6626915932E+00    0.2069802867E-03    0    0
20213    2   10   10    0    0   -0.3746411800E+01   -0.2127956200E+02   -0.3658044052E+02    0.4249884033E+02    0.1080474257E+01    0    0
  211    1   14   14    0    0   -0.1183380127E+01   -0.6710343361E+01   -0.1110761356E+02    0.1303179359E+02    0.1395679116E+00    0    0
  211    1   14   14    0    0   -0.2107762575E+01   -0.1052699184E+02   -0.1807436752E+02    0.2102290344E+02    0.1395679116E+00    0    0
 -211    1   14   14    0    0   -0.4552695453E+00   -0.4042228699E+01   -0.7398465157E+01    0.8444149017E+01    0.1395681798E+00    0    0
</event>
<event>
   16 9999    1    0.9119999695E+02    0.7565275169E-02    0.1185000000E+00
   11   -1    0    0    0    0    0.0000000000E+00    0.0000000000E+00    0.8000000000E+02    0.8000000000E+02    0.5109988851E-03    0    0
  -11   -1    0    0    0    0    0.0000000000E+00    0.0000000000E+00   -0.8000000000E+02    0.8000000000E+02    0.5109988851E-03    0    0
  -24    2    1    2    0    0    0.2013736153E+02    0.3879526138E+01   -0.4389451027E+01    0.7551293945E+02    0.7254221344E+02    0    0
   24    2    1    2    0    0   -0.2013756180E+02   -0.3879717112E+01    0.4387591839E+01    0.8448518372E+02    0.8184082794E+02    0    0
   22    1    1    2    0    0    0.1999676751E-03    0.1910798455E-03    0.1859260025E-02    0.1879719784E-02    0.0000000000E+00    0    0
   15    2    3    3    0    0    0.1575439644E+02    0.3670955276E+02   -0.1156002426E+02    0.4162432480E+02    0.1777029991E+01    0    0
  -16    1    3    3    0    0    0.4382965565E+01   -0.3283002853E+02    0.7170573235E+01    0.3388861465E+02    0.0000000000E+00    0    0
   16    1    4    4    0    0    0.3314802647E+01    0.1143773937E+02    0.3850597000E+02    0.4030532837E+02    0.0000000000E+00    0    0
  -15    2    4    4    0    0   -0.2345236397E+02   -0.1531745720E+02   -0.3411837769E+02    0.4417985153E+02    0.1777029991E+01    0    0
   16    1    6    6    0    0    0.6697463989E+01    0.1378818989E+02   -0.4101373196E+01    0.1586793804E+02    0.2441406250E-03    0    0
   11    1    6    6    0    0    0.1281387568E+01    0.3468427658E+01   -0.9195044637E+00    0.3810174942E+01    0.5033087800E-03    0    0
  -12    1    6    6    0    0    0.7776165485E+01    0.1945438194E+02   -0.6539602280E+01    0.2194785118E+02    0.3662109375E-03    0    0
  -16    1    9    9    0    0   -0.3578993797E+01   -0.2956436157E+01   -0.6180517673E+01    0.7729715824E+01    0.8631674427E-04    0    0
  213    2    9    9    0    0   -0.1987429237E+02   -0.1236162376E+02   -0.2793920135E+02    0.3645187378E+02    0.5855845809E+00    0    0
  211    1   14   14    0    0   -0.1318711948E+02   -0.8153604507E+01   -0.1887446213E+02    0.2442634201E+02    0.1395681649E+00    0    0
  111    1   14   14    0    0   -0.6687174320E+01   -0.4208019257E+01   -0.9064742088E+01    0.1202553463E+02    0.1349640340E+00    0    0
</event>
<event>
   22 9999    1    0.9119999695E+02    0.7565275169E-02    0.1185000000E+00
   11   -1    0    0    0    0    0.0000000000E+00    0.0000000000E+00    0.8000000000E+02    0.8000000000E+02    0.5109988851E-03    0    0
  -11   -1    0    0    0    0    0.0000000000E+00    0.0000000000E+00   -0.8000000000E+02    0.8000000000E+02    0.5109988851E-03    0    0
  -24    2    1    2    0    0    0.8473620415E+01    0.9728190899E+00    0.1607415199E+02    0.8240333557E+02    0.8036904144E+02    0    0
   24    2    1    2    0    0   -0.8473620415E+01   -0.9728190899E+00   -0.1607398605E+02    0.7759649658E+02    0.7543271637E+02    0    0
   22    1    1    2    0    0   -0.1467654354E-07    0.3991988962E-08   -0.1658132678E-03    0.1658132678E-03    0.0000000000E+00    0    0
   15    2    3    3    0    0   -0.2959010839E+01    0.4886847734E-01    0.4818343735E+02    0.4830693054E+02    0.1777029991E+01    0    0
  -16    1    3    3    0    0    0.1143263149E+02    0.9239506125E+00   -0.3210928345E+02    0.3409640503E+02    0.0000000000E+00    0    0
   16    1    4    4    0    0    0.1858039093E+02   -0.1006071377E+02    0.2165526581E+02    0.3025556946E+02    0.0000000000E+00    0    0
  -15    2    4    4    0    0   -0.2705401230E+02    0.9087894440E+01   -0.3772925186E+02    0.4734093094E+02    0.1777029991E+01    0    0
   16    1    6    6    0    0   -0.2319718897E+00   -0.3291642964E+00    0.6829562664E+01    0.6841423988E+01    0.1431401324E-03    0    0
  -24    2    6    6    0    0   -0.2727155447E+01    0.3780346811E+00    0.4135577011E+02    0.4146740723E+02    0.1290679336E+01    0    0
 -211    1   11   11    0    0   -0.4791505635E+00   -0.2307995856E+00    0.1028711796E+02    0.1030180168E+02    0.1395681351E+00    0    0
 -211    1   11   11    0    0   -0.3794044256E+00   -0.4620332271E-01    0.4609087467E+01    0.4627012730E+01    0.1395679712E+00    0    0
  211    1   11   11    0    0   -0.3318925500E+00    0.1653100401E+00    0.3580564976E+01    0.3602416515E+01    0.1395679712E+00    0    0
  111    1   11   11    0    0   -0.1536707520E+01    0.4897274673E+00    0.2287899399E+02    0.2293617058E+02    0.1349640787E+00    0    0
  -16    1    9    9    0    0   -0.8848015785E+01    0.3257394314E+01   -0.1260973740E+02    0.1574495029E+02    0.9406149184E-04    0    0
   24    2    9    9    0    0   -0.1820705986E+02    0.5830857754E+01   -0.2512099648E+02    0.3159783936E+02    0.1364943147E+01    0    0
  211    1   17   17    0    0   -0.2340552568E+01    0.6852635741E+00   -0.3445152998E+01    0.4223308086E+01    0.1395679712E+00    0    0
  211    1   17   17    0    0   -0.3568917274E+01    0.1444869637E+01   -0.5208949089E+01    0.6479000568E+01    0.1395679563E+00    0    0
  211    1   17   17    0    0   -0.1624328494E+01    0.4389488995E+00   -0.2196820498E+01    0.2770671129E+01    0.1395679861E+00    0    0
 -211    1   17   17    0    0   -0.2841011763E+01    0.6643396020E+00   -0.3630522728E+01    0.4659707069E+01    0.1395679861E+00    0    0
 -211    1   17   17    0    0   -0.7832250118E+01    0.2597436190E+01   -0.1063955307E+02    0.1346515465E+02    0.1395679712E+00    0    0
</event>
<event>
   21 9999    1    0.9119999695E+02    0.7565275169E-02    0.1185000000E+00
   11   -1    0    0    0    0    0.0000000000E+00    0.0000000000E+00    0.8000000000E+02    0.8000000000E+02    0.5109988851E-03    0    0
  -11   -1    0    0    0    0    0.0000000000E+00    0.0000000000E+00   -0.8000000000E+02    0.8000000000E+02    0.5109988851E-03    0    0
  -24    2    1    2    0    0    0.1189573002E+02    0.7339253902E+01   -0.8778232336E+00    0.7895547485E+02    0.7770343018E+02    0    0
   24    2    1    2    0    0   -0.1189597702E+02   -0.7338825226E+01    0.5563802123E+00    0.8067404938E+02    0.7945199585E+02    0    0
   22    1    1    2    0    0    0.2594329708E-03   -0.4661235434E-03    0.3459609151E+00    0.3459613323E+00    0.0000000000E+00    0    0
   22    1    1    2    0    0   -0.1264507682E-04    0.3744928108E-04   -0.2451790124E-01    0.2451793291E-01    0.0000000000E+00    0    0
   15    2    3    3    0    0   -0.5264998436E+01   -0.1605996132E+02    0.3130636787E+02    0.3562146759E+02    0.1777029991E+01    0    0
  -16    1    3    3    0    0    0.1716072845E+02    0.2339921570E+02   -0.3218418884E+02    0.4333400726E+02    0.0000000000E+00    0    0
   16    1    4    4    0    0   -0.3449763489E+02   -0.3148070335E+02   -0.5436641216E+01    0.4701785278E+02    0.0000000000E+00    0    0
  -15    2    4    4    0    0    0.2260165596E+02    0.2414187813E+02    0.5993021488E+01    0.3365619278E+02    0.1777029991E+01    0    0
   16    1    7    7    0    0   -0.3932225704E+00   -0.1529757500E+01    0.2298658133E+01    0.2789016247E+01    0.2589502255E-03    0    0
  -24    2    7    7    0    0   -0.4871983528E+01   -0.1453083706E+02    0.2900894165E+02    0.3283385468E+02    0.1289154172E+01    0    0
  111    1   12   12    0    0   -0.9400470257E+00   -0.3607112646E+01    0.6642095089E+01    0.7617781639E+01    0.1349639595E+00    0    0
  111    1   12   12    0    0   -0.8983002305E+00   -0.3273627996E+01    0.6812567711E+01    0.7612679005E+01    0.1349636167E+00    0    0
  111    1   12   12    0    0   -0.1332355022E+01   -0.3852228880E+01    0.7590404987E+01    0.8616686821E+01    0.1349640191E+00    0    0
 -211    1   12   12    0    0   -0.1701281905E+01   -0.3797869921E+01    0.7963878632E+01    0.8986713409E+01    0.1395680308E+00    0    0
  -16    1   10   10    0    0    0.7006507397E+01    0.7870479107E+01    0.1498365283E+01    0.1064334011E+02    0.2441406250E-03    0    0
   24    2   10   10    0    0    0.1559603977E+02    0.1627235031E+02    0.4494892597E+01    0.2301417923E+02    0.1192698240E+01    0    0
  321    1   18   18    0    0    0.1220360088E+02    0.1241717529E+02    0.3711164713E+01    0.1780816078E+02    0.4936669767E+00    0    0
  211    1   18   18    0    0    0.1531813383E+01    0.1872380376E+01    0.4165796041E+00    0.2458714724E+01    0.1395683885E+00    0    0
 -211    1   18   18    0    0    0.1860625029E+01    0.1982794166E+01    0.3671479523E+00    0.2747303247E+01    0.1395680159E+00    0    0
</event>
<event>
   20 9999    1    0.9119999695E+02    0.7565275169E-02    0.1185000000E+00
   11   -1    0    0    0    0    0.0000000000E+00    0.0000000000E+00    0.8000000000E+02    0.8000000000E+02    0.5109988851E-03    0    0
  -11   -1    0    0    0    0    0.0000000000E+00    0.0000000000E+00   -0.8000000000E+02    0.8000000000E+02    0.5109988851E-03    0    0
  -24    2    1    2    0    0   -0.4425233364E+01    0.7608396053E+01    0.1747440720E+02    0.7893879700E+02    0.7647554016E+02    0    0
   24    2    1    2    0    0    0.4435837746E+01   -0.7602584839E+01   -0.1712601662E+02    0.8071083832E+02    0.7838024902E+02    0    0
   22    1    1    2    0    0   -0.9920931421E-02   -0.2776071895E-02   -0.3466427624E+00    0.3467957973E+00    0.0000000000E+00    0    0
   22    1    1    2    0    0   -0.6832422805E-03   -0.3035091562E-02   -0.1748524490E-02    0.3568744753E-02    0.0000000000E+00    0    0
   15    2    3    3    0    0   -0.3444908524E+02    0.1505037546E+01    0.3009573174E+02    0.4580300903E+02    0.1777029991E+01    0    0
  -16    1    3    3    0    0    0.3002385330E+02    0.6103358269E+01   -0.1262132359E+02    0.3313578796E+02    0.0000000000E+00    0    0
   16    1    4    4    0    0   -0.1730699348E+02    0.2028847504E+02    0.1692549706E+02    0.3158522987E+02    0.0000000000E+00    0    0
  -15    2    4    4    0    0    0.2174283218E+02   -0.2789105988E+02   -0.3405151367E+02    0.4912560654E+02    0.1777029991E+01    0    0
   16    1    7    7    0    0   -0.4880170345E+01    0.4804833792E-02    0.4008241653E+01    0.6315226555E+01    0.2200653835E-03    0    0
  -24    2    7    7    0    0   -0.2957027245E+02    0.1500291944E+01    0.2608867455E+02    0.3948958588E+02    0.1468503594E+01    0    0
  130    1   12   12    0    0   -0.1280841160E+02    0.8783574700E+00    0.1122352982E+02    0.1705996132E+02    0.4977200031E+00    0    0
 -211    1   12   12    0    0   -0.3794908762E+01   -0.4131205380E-01    0.3148577929E+01    0.4933159351E+01    0.1395682693E+00    0    0
  310    1   12   12    0    0   -0.1292288971E+02    0.6624231339E+00    0.1166584682E+02    0.1742927361E+02    0.4977199733E+00    0    0
   22    1   12   12    0    0   -0.4409406707E-01    0.8247786900E-03    0.5074760318E-01    0.6723307818E-01    0.0000000000E+00    0    0
  -16    1   10   10    0    0    0.1467444611E+02   -0.1933118248E+02   -0.2348148346E+02    0.3377001572E+02    0.1671516657E-03    0    0
  323    2   10   10    0    0    0.7069241524E+01   -0.8560975075E+01   -0.1057137108E+02    0.1535752487E+02    0.9139034152E+00    0    0
  211    1   18   18    0    0    0.3346129417E+01   -0.4253257751E+01   -0.5484944344E+01    0.7706547737E+01    0.1395680159E+00    0    0
  310    1   18   18    0    0    0.3723109484E+01   -0.4307714462E+01   -0.5086422443E+01    0.7650971413E+01    0.4977198541E+00    0    0
</event>
<event>
   21 9999    1    0.9119999695E+02    0.7565275169E-02    0.1185000000E+00
   11   -1    0    0    0    0    0.0000000000E+00    0.0000000000E+00    0.8000000000E+02    0.8000000000E+02    0.5109988851E-03    0    0
  -11   -1    0    0    0    0    0.0000000000E+00    0.0000000000E+00   -0.8000000000E+02    0.8000000000E+02    0.5109988851E-03    0    0
  -24    2    1    2    0    0    0.3374109507E+01   -0.4902014732E+01    0.1660457611E+02    0.8218402100E+02    0.8026884460E+02    0    0
   24    2    1    2    0    0   -0.3374108076E+01    0.4902014256E+01   -0.1663749695E+02    0.7778305054E+02    0.7574947357E+02    0    0
   22    1    1    2    0    0   -0.1192075615E-05    0.4170133536E-06    0.3284079954E-01    0.3284079954E-01    0.0000000000E+00    0    0
   22    1    1    2    0    0   -0.4854976510E-07   -0.3242666968E-09    0.8152158262E-04    0.8152159717E-04    0.0000000000E+00    0    0
   15    2    3    3    0    0   -0.3521618652E+02    0.1347229767E+02    0.7616604328E+01    0.3850783157E+02    0.1777029991E+01    0    0
  -16    1    3    3    0    0    0.3859029388E+02   -0.1837431145E+02    0.8987971306E+01    0.4367619324E+02    0.0000000000E+00    0    0
   16    1    4    4    0    0   -0.1073021984E+02   -0.2356660652E+02    0.1857954216E+02    0.3187039185E+02    0.0000000000E+00    0    0
  -15    2    4    4    0    0    0.7356111526E+01    0.2846862030E+02   -0.3521704102E+02    0.4591266251E+02    0.1777029991E+01    0    0
   16    1    7    7    0    0   -0.7998209476E+01    0.3069157124E+01    0.1642668247E+01    0.8722926140E+01    0.3051757812E-04    0    0
  -24    2    7    7    0    0   -0.2721936035E+02    0.1040367031E+02    0.5974235535E+01    0.2978641891E+02    0.1552190781E+01    0    0
 -211    1   12   12    0    0   -0.3211837292E+01    0.1084268332E+01    0.7355560660E+00    0.3471607447E+01    0.1395680010E+00    0    0
 -211    1   12   12    0    0   -0.6296040058E+01    0.2399109602E+01    0.1437471986E+01    0.6890693188E+01    0.1395679861E+00    0    0
  211    1   12   12    0    0   -0.4863343716E+01    0.1609045744E+01    0.8766823411E+00    0.5198960781E+01    0.1395679563E+00    0    0
  111    1   12   12    0    0   -0.2412374258E+01    0.1174868464E+01    0.6040495634E+00    0.2753716946E+01    0.1349640340E+00    0    0
  111    1   12   12    0    0   -0.6614044189E+01    0.2499537468E+01    0.1338941574E+01    0.7197516918E+01    0.1349639893E+00    0    0
  111    1   12   12    0    0   -0.3821721554E+01    0.1636840463E+01    0.9815339446E+00    0.4273923874E+01    0.1349639893E+00    0    0
  -16    1   10   10    0    0    0.7189318180E+01    0.2604859924E+02   -0.3209826279E+02    0.4195848083E+02    0.1057159898E-03    0    0
  211    1   10   10    0    0    0.1502119601E+00    0.2302520514E+01   -0.2949191570E+01    0.3747200012E+01    0.1395680010E+00    0    0
   22    1   10   10    0    0    0.1658119448E-01    0.1174997240E+00   -0.1695883125E+00    0.2069814503E+00    0.0000000000E+00    0    0
</event>
<event>
   19 9999    1    0.9119999695E+02    0.7565275169E-02    0.1185000000E+00
   11   -1    0    0    0    0    0.0000000000E+00    0.0000000000E+00    0.8000000000E+02    0.8000000000E+02    0.5109988851E-03    0    0
  -11   -1    0    0    0    0    0.0000000000E+00    0.0000000000E+00   -0.8000000000E+02    0.8000000000E+02    0.5109988851E-03    0    0
  -24    2    1    2    0    0   -0.1899087906E+01    0.5513091087E+01    0.2025288773E+02    0.8174279022E+02    0.7897913361E+02    0    0
   24    2    1    2    0    0    0.1898466706E+01   -0.5517847061E+01   -0.2042875671E+02    0.7808126831E+02    0.7513520813E+02    0    0
   22    1    1    2    0    0    0.6211982691E-03    0.4755031783E-02    0.1556575298E+00    0.1557313800E+00    0.0000000000E+00    0    0
   22    1    1    2    0    0    0.1876072844E-06    0.2016314369E-06    0.1829327829E-01    0.1829327829E-01    0.0000000000E+00    0    0
   22    1    1    2    0    0   -0.1679351129E-06    0.8439711223E-06    0.1917914837E-02    0.1917915069E-02    0.0000000000E+00    0    0
   15    2    3    3    0    0   -0.3128269577E+02   -0.2251521873E+02    0.9527361870E+01    0.3974255371E+02    0.1777029991E+01    0    0
  -16    1    3    3    0    0    0.2938360786E+02    0.2802831078E+02    0.1072552490E+02    0.4200023270E+02    0.0000000000E+00    0    0
   16    1    4    4    0    0   -0.2506163120E+00   -0.3059270477E+02   -0.3691363907E+02    0.4794364548E+02    0.0000000000E+00    0    0
  -15    2    4    4    0    0    0.2149083138E+01    0.2507485771E+02    0.1648488426E+02    0.3013762283E+02    0.1777029991E+01    0    0
   16    1    8    8    0    0   -0.2655685806E+02   -0.1900254059E+02    0.8227219582E+01    0.3367566299E+02    0.2024307178E-03    0    0
 -213    2    8    8    0    0   -0.4727070808E+01   -0.3513565779E+01    0.1300517440E+01    0.6068455219E+01    0.6666820645E+00    0    0
 -211    1   13   13    0    0   -0.2584312856E+00   -0.2177038193E+00    0.7428176701E-02    0.3656720519E+00    0.1395678520E+00    0    0
  111    1   13   13    0    0   -0.4468639374E+01   -0.3295861959E+01    0.1293089390E+01    0.5702783585E+01    0.1349640042E+00    0    0
  -16    1   11   11    0    0    0.1312588692E+01    0.1278955364E+02    0.9258841515E+01    0.1584366512E+02    0.1726334885E-03    0    0
  213    2   11   11    0    0    0.8365787864E+00    0.1228629017E+02    0.7226690769E+01    0.1429514217E+02    0.6879348755E+00    0    0
  211    1   17   17    0    0    0.2522247732E+00    0.7206668854E+01    0.3997057199E+01    0.8245946884E+01    0.1395677477E+00    0    0
  111    1   17   17    0    0    0.5843539834E+00    0.5079620361E+01    0.3229632854E+01    0.6049194336E+01    0.1349639297E+00    0    0
</event>
<event>
   22 9999    1    0.9119999695E+02    0.7565275169E-02    0.1185000000E+00
   11   -1    0    0    0    0    0.0000000000E+00    0.0000000000E+00    0.8000000000E+02    0.8000000000E+02    0.5109988851E-03    0    0
  -11   -1    0    0    0    0    0.0000000000E+00    0.0000000000E+00   -0.8000000000E+02    0.8000000000E+02    0.5109988851E-03    0    0
  -24    2    1    2    0    0    0.8289248466E+01   -0.1505669355E+01   -0.1238514543E+01    0.7993116760E+02    0.7947628021E+02    0    0
   24    2    1    2    0    0   -0.8244857788E+01    0.1627624273E+01    0.9103631973E+00    0.7971163177E+02    0.7926214600E+02    0    0
   22    1    1    2    0    0   -0.4439088330E-01   -0.1219543591E+00    0.2753873765E+00    0.3044365644E+00    0.0000000000E+00    0    0
   22    1    1    2    0    0   -0.1692231244E-08   -0.4939373639E-06    0.5276399851E-01    0.5276399851E-01    0.0000000000E+00    0    0
   15    2    3    3    0    0    0.2489138031E+02   -0.5263172150E+01    0.3299296951E+02    0.4170102692E+02    0.1777029991E+01    0    0
  -16    1    3    3    0    0   -0.1660213280E+02    0.3757502556E+01   -0.3423148346E+02    0.3823014450E+02    0.0000000000E+00    0    0
   16    1    4    4    0    0   -0.9820189476E+01   -0.3478773880E+02    0.1685972595E+02    0.3988575363E+02    0.0000000000E+00    0    0
  -15    2    4    4    0    0    0.1575331569E+01    0.3641536331E+02   -0.1594936275E+02    0.3982587433E+02    0.1777029991E+01    0    0
   16    1    7    7    0    0    0.1903962731E+01   -0.4598091543E+00    0.2528347254E+01    0.3198287010E+01    0.5967990146E-03    0    0
  -24    2    7    7    0    0    0.2298839569E+02   -0.4803569794E+01    0.3046591759E+02    0.3850437927E+02    0.1695399046E+01    0    0
 -211    1   12   12    0    0    0.7664512157E+01   -0.1148611784E+01    0.1008438301E+02    0.1271921062E+02    0.1395681202E+00    0    0
 -211    1   12   12    0    0    0.3374134779E+01   -0.8742843270E+00    0.4043079853E+01    0.5339956284E+01    0.1395680159E+00    0    0
  211    1   12   12    0    0    0.3638799667E+01   -0.8122969866E+00    0.5002994061E+01    0.6241003036E+01    0.1395680010E+00    0    0
  111    1   12   12    0    0    0.6618077278E+01   -0.1727003098E+01    0.8903333664E+01    0.1122804737E+02    0.1349641234E+00    0    0
  111    1   12   12    0    0    0.1692871809E+01   -0.2413733304E+00    0.2432126284E+01    0.2976160288E+01    0.1349642873E+00    0    0
  -16    1   10   10    0    0    0.5195541307E-01    0.3592414856E+01   -0.1283063412E+01    0.3815022469E+01    0.3955530119E-03    0    0
   24    2   10   10    0    0    0.1523438215E+01    0.3282438278E+02   -0.1466692829E+02    0.3601242447E+02    0.1419434905E+01    0    0
  211    1   19   19    0    0   -0.5413174629E-02    0.4916653931E+00   -0.1966692954E+00    0.5476515293E+00    0.1395679265E+00    0    0
  111    1   19   19    0    0    0.1316207051E+01    0.2070308304E+02   -0.9436129570E+01    0.2279054260E+02    0.1349641681E+00    0    0
   22    1   19   19    0    0    0.2126444429E+00    0.1162963581E+02   -0.5034130096E+01    0.1267423058E+02    0.2640696475E-03    0    0
</event>
<event>
   19 9999    1    0.9119999695E+02    0.7565275169E-02    0.1185000000E+00
   11   -1    0    0    0    0    0.0000000000E+00    0.0000000000E+00    0.8000000000E+02    0.8000000000E+02    0.5109988851E-03    0    0
  -11   -1    0    0    0    0    0.0000000000E+00    0.0000000000E+00   -0.8000000000E+02    0.8000000000E+02    0.5109988851E-03    0    0
  -24    2    1    2    0    0   -0.8519686460E+00   -0.1522999668E+02   -0.1192750168E+02    0.7839997864E+02    0.7597113037E+02    0    0
   24    2    1    2    0    0    0.8519522548E+00    0.1522837925E+02    0.1220229816E+02    0.8132521820E+02    0.7894470215E+02    0    0
   22    1    1    2    0    0    0.1637440437E-04    0.1617082511E-02   -0.2747966349E+00    0.2748013735E+00    0.0000000000E+00    0    0
   15    2    3    3    0    0   -0.5218164444E+01   -0.9330223083E+01    0.1367590523E+02    0.1744908333E+02    0.1777029991E+01    0    0
  -16    1    3    3    0    0    0.2060534096E+02    0.1457358074E+02   -0.2390773201E+02    0.3476419067E+02    0.0000000000E+00    0    0
   22    1    3    3    0    0   -0.1623914528E+02   -0.2047335434E+02   -0.1695675731E+01    0.2618670273E+02    0.0000000000E+00    0    0
   16    1    4    4    0    0    0.1238167572E+02   -0.1569940948E+02    0.3559780121E+02    0.4082867813E+02    0.0000000000E+00    0    0
  -15    2    4    4    0    0   -0.1152972317E+02    0.3092778969E+02   -0.2339550400E+02    0.4049654388E+02    0.1777029991E+01    0    0
   16    1    6    6    0    0   -0.8618359566E+00   -0.2472534657E+01    0.3578575373E+01    0.4434229374E+01    0.1141863249E-03    0    0
  -24    2    6    6    0    0   -0.4356545925E+01   -0.6858087540E+01    0.1009794807E+02    0.1301562786E+02    0.1193758130E+01    0    0
 -321    1   12   12    0    0   -0.2053483248E+01   -0.3457556725E+01    0.4505535603E+01    0.6059298992E+01    0.4936670065E+00    0    0
  310    1   12   12    0    0   -0.2303065300E+01   -0.3400538683E+01    0.5592437267E+01    0.6956355095E+01    0.4977199733E+00    0    0
  -16    1   10   10    0    0   -0.1556794047E+01    0.3553236961E+01   -0.2936164856E+01    0.4865199566E+01    0.2796982299E-03    0    0
   24    2   10   10    0    0   -0.9973382950E+01    0.2737577057E+02   -0.2046026039E+02    0.3563293839E+02    0.1477488756E+01    0    0
  321    1   16   16    0    0   -0.3722145796E+01    0.1097257710E+02   -0.8048909187E+01    0.1411667347E+02    0.4936668873E+00    0    0
  211    1   16   16    0    0   -0.2615449905E+01    0.7236391544E+01   -0.5718748569E+01    0.9587987900E+01    0.1395684332E+00    0    0
 -321    1   16   16    0    0   -0.3635787964E+01    0.9166802406E+01   -0.6692603588E+01    0.1192827988E+02    0.4936670065E+00    0    0
</event>
<event>
   15 9999    1    0.9119999695E+02    0.7565275169E-02    0.1185000000E+00
   11   -1    0    0    0    0    0.0000000000E+00    0.0000000000E+00    0.8000000000E+02    0.8000000000E+02    0.5109988851E-03    0    0
  -11   -1    0    0    0    0    0.0000000000E+00    0.0000000000E+00   -0.8000000000E+02    0.8000000000E+02    0.5109988851E-03    0    0
  -24    2    1    2    0    0    0.5697825432E+01    0.4856576920E+01    0.7924441338E+01    0.7923794556E+02    0.7848441315E+02    0    0
   24    2    1    2    0    0   -0.5697825432E+01   -0.4856576920E+01   -0.7924441338E+01    0.8076205444E+02    0.8002288055E+02    0    0
   15    2    3    3    0    0   -0.2055335641E+00    0.3951025009E+02    0.1681723022E+02    0.4297765732E+02    0.1777029991E+01    0    0
  -16    1    3    3    0    0    0.5903358936E+01   -0.3465367508E+02   -0.8892787933E+01    0.3626028824E+02    0.0000000000E+00    0    0
   16    1    4    4    0    0   -0.9087615013E+01    0.3703828049E+02   -0.1176523805E+01    0.3815499115E+02    0.0000000000E+00    0    0
  -15    2    4    4    0    0    0.3389789104E+01   -0.4189485931E+02   -0.6747917652E+01    0.4260706711E+02    0.1777029991E+01    0    0
   16    1    5    5    0    0    0.2917250693E+00    0.1940245271E+01    0.1033842683E+01    0.2217766047E+01    0.8631674427E-04    0    0
 -213    2    5    5    0    0   -0.4972667396E+00    0.3757155991E+02    0.1578404903E+02    0.4076158524E+02    0.7079360485E+00    0    0
 -211    1   10   10    0    0   -0.5206363797E+00    0.1647092056E+02    0.6798392773E+01    0.1782694435E+02    0.1395678073E+00    0    0
  111    1   10   10    0    0    0.2336965688E-01    0.2110063744E+02    0.8985655785E+01    0.2293463898E+02    0.1349642724E+00    0    0
  -16    1    8    8    0    0    0.1550661325E+01   -0.2234830475E+02   -0.3651743889E+01    0.2269772148E+02    0.1881229837E-03    0    0
  -11    1    8    8    0    0    0.1966919422E+01   -0.1643210411E+02   -0.2665032864E+01    0.1676261330E+02    0.5565063329E-03    0    0
   12    1    8    8    0    0   -0.1276579946E+00   -0.3116099834E+01   -0.4314069450E+00    0.3148410082E+01    0.1685388270E-03    0    0
</event>
<event>
   17 9999    1    0.9119999695E+02    0.7565275169E-02    0.1185000000E+00
   11   -1    0    0    0    0    0.0000000000E+00    0.0000000000E+00    0.8000000000E+02    0.8000000000E+02    0.5109988851E-03    0    0
  -11   -1    0    0    0    0    0.0000000000E+00    0.0000000000E+00   -0.8000000000E+02    0.8000000000E+02    0.5109988851E-03    0    0
  -24    2    1    2    0    0   -0.8097559929E+01   -0.3434861374E+02    0.2788611031E+02    0.6749990845E+02    0.5033095169E+02    0    0
   24    2    1    2    0    0    0.8097559929E+01    0.3434861374E+02   -0.2788611031E+02    0.9250009155E+02    0.8082842255E+02    0    0
   15    2    3    3    0    0    0.2088661385E+02   -0.1706848335E+02    0.7411928177E+01    0.2802995300E+02    0.1777029991E+01    0    0
  -16    1    3    3    0    0   -0.2898417473E+02   -0.1728013229E+02    0.2047418213E+02    0.3946995544E+02    0.0000000000E+00    0    0
   16    1    4    4    0    0   -0.1890887642E+02    0.8012579918E+01    0.2189311409E+02    0.3001758575E+02    0.0000000000E+00    0    0
  -15    2    4    4    0    0    0.2700643730E+02    0.2633603477E+02   -0.4977922440E+02    0.6248250580E+02    0.1777029991E+01    0    0
   16    1    5    5    0    0    0.4895361900E+01   -0.4235644341E+01    0.1746203899E+01    0.6704810143E+01    0.3856053227E-03    0    0
  -24    2    5    5    0    0    0.1599207401E+02   -0.1283351040E+02    0.5666016102E+01    0.2132624626E+02    0.1503200412E+01    0    0
 -211    1   10   10    0    0    0.4841398239E+01   -0.3451092720E+01    0.1728202462E+01    0.6193168640E+01    0.1395685077E+00    0    0
 -211    1   10   10    0    0    0.3267884970E+01   -0.2613193035E+01    0.1320237756E+01    0.4389801502E+01    0.1395679265E+00    0    0
  211    1   10   10    0    0    0.6201102138E+00   -0.5608541965E+00    0.1848722398E+00    0.8676123023E+00    0.1395680010E+00    0    0
  111    1   10   10    0    0    0.6105459690E+01   -0.5003829479E+01    0.1971742868E+01    0.8137624741E+01    0.1349639893E+00    0    0
  111    1   10   10    0    0    0.1157221198E+01   -0.1204540491E+01    0.4609606266E+00    0.1738038778E+01    0.1349643171E+00    0    0
  -16    1    8    8    0    0    0.1331062698E+02    0.1419434643E+02   -0.2590297318E+02    0.3239778137E+02    0.3452669771E-03    0    0
  211    1    8    8    0    0    0.1369687366E+02    0.1214272594E+02   -0.2387821388E+02    0.3008718491E+02    0.1395683885E+00    0    0
</event>
<event>
   16 9999    1    0.9119999695E+02    0.7565275169E-02    0.1185000000E+00
   11   -1    0    0    0    0    0.0000000000E+00    0.0000000000E+00    0.8000000000E+02    0.8000000000E+02    0.5109988851E-03    0    0
  -11   -1    0    0    0    0    0.0000000000E+00    0.0000000000E+00   -0.8000000000E+02    0.8000000000E+02    0.5109988851E-03    0    0
  -24    2    1    2    0    0   -0.4902863503E+01   -0.1095813751E+02    0.3600574112E+02    0.8654094696E+02    0.7777405548E+02    0    0
   24    2    1    2    0    0    0.4902863979E+01    0.1095813751E+02   -0.3597755814E+02    0.7343087006E+02    0.6287757492E+02    0    0
   22    1    1    2    0    0   -0.2966031332E-06    0.5109999961E-06   -0.2817949653E-01    0.2817949653E-01    0.0000000000E+00    0    0
   15    2    3    3    0    0    0.2488097191E+02    0.1902429008E+02    0.5492621660E+00    0.3137588120E+02    0.1777029991E+01    0    0
  -16    1    3    3    0    0   -0.2978383636E+02   -0.2998242760E+02    0.3545647812E+02    0.5516506577E+02    0.0000000000E+00    0    0
   16    1    4    4    0    0    0.9227887154E+01    0.3258116531E+02   -0.3374279976E+01    0.3403045654E+02    0.0000000000E+00    0    0
  -15    2    4    4    0    0   -0.4325023174E+01   -0.2162302780E+02   -0.3260327911E+02    0.3940041733E+02    0.1777029991E+01    0    0
   16    1    6    6    0    0    0.1515655327E+02    0.1188045216E+02   -0.2823177576E+00    0.1925995827E+02    0.1726334885E-03    0    0
 -213    2    6    6    0    0    0.9725398064E+01    0.7144585133E+01    0.8316015005E+00    0.1211715794E+02    0.7109746337E+00    0    0
 -211    1   11   11    0    0    0.4494040012E+01    0.3078139305E+01    0.6477381587E+00    0.5487292767E+01    0.1395679563E+00    0    0
  111    1   11   11    0    0    0.5231357574E+01    0.4066445351E+01    0.1838633269E+00    0.6629864216E+01    0.1349641681E+00    0    0
  -16    1    9    9    0    0   -0.3472062826E+01   -0.1564023113E+02   -0.2339866829E+02    0.2835788536E+02    0.2695239382E-03    0    0
  -13    1    9    9    0    0   -0.8658969402E+00   -0.5542519569E+01   -0.8100615501E+01    0.9853955269E+01    0.1056590751E+00    0    0
   14    1    9    9    0    0    0.1276603620E-01   -0.4411303997E+00   -0.1105282903E+01    0.1190129995E+01    0.4228639591E-03    0    0
</event>
<event>
   19 9999    1    0.9119999695E+02    0.7565275169E-02    0.1185000000E+00
   11   -1    0    0    0    0    0.0000000000E+00    0.0000000000E+00    0.8000000000E+02    0.8000000000E+02    0.5109988851E-03    0    0
  -11   -1    0    0    0    0    0.0000000000E+00    0.0000000000E+00   -0.8000000000E+02    0.8000000000E+02    0.5109988851E-03    0    0
  -24    2    1    2    0    0   -0.6578357697E+01    0.2634189725E+00    0.8202033997E+01    0.8108372498E+02    0.8039871216E+02    0    0
   24    2    1    2    0    0    0.6578480244E+01   -0.2633834481E+00   -0.1212284756E+02    0.7499546051E+02    0.7371573639E+02    0    0
   22    1    1    2    0    0   -0.1273040252E-03   -0.4712465670E-04    0.3920109987E+01    0.3920109987E+01    0.0000000000E+00    0    0
   22    1    1    2    0    0    0.4764409368E-05    0.1158519626E-04    0.7038065814E-03    0.7039180491E-03    0.0000000000E+00    0    0
   15    2    3    3    0    0    0.2127501297E+02    0.2112449265E+02   -0.2017510796E+02    0.3618097687E+02    0.1777029991E+01    0    0
  -16    1    3    3    0    0   -0.2785337067E+02   -0.2086107254E+02    0.2837714005E+02    0.4490274811E+02    0.0000000000E+00    0    0
   16    1    4    4    0    0    0.1764852715E+02   -0.1473436069E+02    0.2477935219E+02    0.3380219269E+02    0.0000000000E+00    0    0
  -15    2    4    4    0    0   -0.1107004738E+02    0.1447097683E+02   -0.3690219879E+02    0.4119326782E+02    0.1777029991E+01    0    0
   16    1    7    7    0    0    0.4183995247E+01    0.3769677639E+01   -0.3759136438E+01    0.6771070480E+01    0.6119706668E-03    0    0
  -24    2    7    7    0    0    0.1709185410E+02    0.1735564613E+02   -0.1641676331E+02    0.2941132927E+02    0.1471828938E+01    0    0
 -211    1   12   12    0    0    0.8238930702E+01    0.7912911415E+01   -0.7969401360E+01    0.1392928505E+02    0.1395677775E+00    0    0
  130    1   12   12    0    0    0.8428305626E+01    0.8915142059E+01   -0.8093811989E+01    0.1470624352E+02    0.4977199733E+00    0    0
  111    1   12   12    0    0    0.4246186018E+00    0.5275923610E+00   -0.3535502553E+00    0.7758013606E+00    0.1349639893E+00    0    0
  -16    1   10   10    0    0   -0.5223639011E+01    0.5961922646E+01   -0.1579613686E+02    0.1767339325E+02    0.8631674427E-04    0    0
  323    2   10   10    0    0   -0.5846844196E+01    0.8509624481E+01   -0.2110751724E+02    0.2352149582E+02    0.1065001130E+01    0    0
  211    1   17   17    0    0   -0.3388289690E+01    0.4323276043E+01   -0.1083130741E+02    0.1214528370E+02    0.1395680457E+00    0    0
  130    1   17   17    0    0   -0.2458554983E+01    0.4186348915E+01   -0.1027621078E+02    0.1137621403E+02    0.4977199137E+00    0    0
</event>
<event>
   20 9999    1    0.9119999695E+02    0.7565275169E-02    0.1185000000E+00
   11   -1    0    0    0    0    0.0000000000E+00    0.0000000000E+00    0.8000000000E+02    0.8000000000E+02    0.5109988851E-03    0    0
  -11   -1    0    0    0    0    0.0000000000E+00    0.0000000000E+00   -0.8000000000E+02    0.8000000000E+02    0.5109988851E-03    0    0
  -24    2    1    2    0    0   -0.1942408371E+02   -0.2540184975E+02    0.5539236546E+01    0.7456504822E+02    0.6713206482E+02    0    0
   24    2    1    2    0    0    0.1942408371E+02    0.2540184975E+02   -0.5539236546E+01    0.8543495178E+02    0.7903099823E+02    0    0
   15    2    3    3    0    0   -0.1229734135E+02   -0.3097547913E+02    0.3222150421E+02    0.4639060593E+02    0.1777029991E+01    0    0
  -16    1    3    3    0    0   -0.7126743317E+01    0.5573630810E+01   -0.2668227005E+02    0.2817444420E+02    0.0000000000E+00    0    0
   16    1    4    4    0    0    0.4810355186E+01   -0.2798348236E+02    0.5180067062E+01    0.2886256981E+02    0.0000000000E+00    0    0
  -15    2    4    4    0    0    0.1051563835E+02    0.4027954102E+02   -0.6261295319E+01    0.4213528061E+02    0.1777029991E+01    0    0
   22    1    4    4    0    0    0.4098089695E+01    0.1310579014E+02   -0.4458007812E+01    0.1443710232E+02    0.0000000000E+00    0    0
   16    1    5    5    0    0   -0.9962902665E+00   -0.2054775238E+01    0.2029519796E+01    0.3055101871E+01    0.5133851082E-03    0    0
  -24    2    5    5    0    0   -0.1130153465E+02   -0.2892192268E+02    0.3019325256E+02    0.4333732605E+02    0.1512985706E+01    0    0
 -211    1   11   11    0    0   -0.1962409258E+01   -0.4837243557E+01    0.4791844368E+01    0.7087399006E+01    0.1395684928E+00    0    0
 -211    1   11   11    0    0   -0.3609247446E+01   -0.8768107414E+01    0.9485884666E+01    0.1341297340E+02    0.1395680457E+00    0    0
  211    1   11   11    0    0   -0.2881412268E+01   -0.7530233383E+01    0.8029776573E+01    0.1137997150E+02    0.1395680308E+00    0    0
  111    1   11   11    0    0   -0.4175478816E+00   -0.1151709676E+01    0.1393895388E+01    0.1860629201E+01    0.1349639744E+00    0    0
  111    1   11   11    0    0   -0.2430916786E+01   -0.6634625912E+01    0.6491850853E+01    0.9596351624E+01    0.1349641979E+00    0    0
  -16    1    8    8    0    0    0.2230603218E+01    0.8893441200E+01   -0.2020162106E+01    0.9388821602E+01    0.0000000000E+00    0    0
  213    2    8    8    0    0    0.8285471916E+01    0.3138777733E+02   -0.4241393089E+01    0.3274821091E+02    0.7838538885E+00    0    0
  211    1   18   18    0    0    0.4052671432E+01    0.1672004509E+02   -0.2359816074E+01    0.1736583900E+02    0.1395678818E+00    0    0
  111    1   18   18    0    0    0.4232799530E+01    0.1466772938E+02   -0.1881573796E+01    0.1538237476E+02    0.1349639595E+00    0    0
</event>
<event>
   22 9999    1    0.9119999695E+02    0.7565275169E-02    0.1185000000E+00
   11   -1    0    0    0    0    0.0000000000E+00    0.0000000000E+00    0.8000000000E+02    0.8000000000E+02    0.5109988851E-03    0    0
  -11   -1    0    0    0    0    0.0000000000E+00    0.0000000000E+00   -0.8000000000E+02    0.8000000000E+02    0.5109988851E-03    0    0
  -24    2    1    2    0    0   -0.2626507759E+02   -0.1569292736E+02    0.6258985043E+01    0.8657000732E+02    0.8074075317E+02    0    0
   24    2    1    2    0    0    0.2626510429E+02    0.1569295216E+02   -0.6245008469E+01    0.7341601562E+02    0.6644386292E+02    0    0
   22    1    1    2    0    0   -0.2778075759E-04   -0.2474177199E-04   -0.1397666894E-01    0.1397671830E-01    0.0000000000E+00    0    0
   15    2    3    3    0    0   -0.2242379379E+02    0.3100414848E+02   -0.4284852028E+01    0.3854350281E+02    0.1777029991E+01    0    0
  -16    1    3    3    0    0   -0.3841283321E+01   -0.4669707870E+02    0.1054383659E+02    0.4802650452E+02    0.0000000000E+00    0    0
   16    1    4    4    0    0    0.3452265263E+01    0.1358712959E+02    0.2849810410E+02    0.3175956726E+02    0.0000000000E+00    0    0
  -15    2    4    4    0    0    0.2219683838E+02    0.2024538994E+01   -0.3373807144E+02    0.4047484970E+02    0.1777029991E+01    0    0
   22    1    4    4    0    0    0.6160002947E+00    0.8128362149E-01   -0.1005041242E+01    0.1181596994E+01    0.0000000000E+00    0    0
   16    1    6    6    0    0   -0.1063050628E+01    0.1867647648E+01   -0.2794720829E+00    0.2167092323E+01    0.2750817293E-04    0    0
  -24    2    6    6    0    0   -0.2136162567E+02    0.2913772202E+02   -0.4005548477E+01    0.3637792969E+02    0.1408291578E+01    0    0
  111    1   12   12    0    0   -0.3866812706E+01    0.5628994942E+01   -0.9352930188E+00    0.6894259453E+01    0.1349634677E+00    0    0
  111    1   12   12    0    0   -0.1404048204E+01    0.1887782812E+01   -0.4666492641E+00    0.2402301550E+01    0.1349640489E+00    0    0
 -321    1   12   12    0    0   -0.1609076309E+02    0.2162094307E+02   -0.2603605986E+01    0.2708136368E+02    0.4936669767E+00    0    0
  -16    1    9    9    0    0    0.1558687568E+01    0.1744048744E+00   -0.2092921019E+01    0.2615385532E+01    0.4315837214E-04    0    0
   24    2    9    9    0    0    0.2063900757E+02    0.1850212216E+01   -0.3164645004E+02    0.3786102676E+02    0.1602388144E+01    0    0
  211    1   17   17    0    0    0.5079777718E+01    0.3563124239E+00   -0.7557395935E+01    0.9113988876E+01    0.1395680308E+00    0    0
  211    1   17   17    0    0    0.3969081640E+01    0.5654597878E+00   -0.6008432865E+01    0.7224547863E+01    0.1395680308E+00    0    0
  211    1   17   17    0    0    0.6122332215E+00    0.2193681896E+00   -0.1053412676E+01    0.1245836735E+01    0.1395680010E+00    0    0
 -211    1   17   17    0    0    0.8812977791E+01    0.5015620589E+00   -0.1349349308E+02    0.1612494850E+02    0.1395679563E+00    0    0
 -211    1   17   17    0    0    0.2164937019E+01    0.2075098306E+00   -0.3533716917E+01    0.4151703835E+01    0.1395679861E+00    0    0
</event>
<event>
   19 9999    1    0.9119999695E+02    0.7565275169E-02    0.1185000000E+00
   11   -1    0    0    0    0    0.0000000000E+00    0.0000000000E+00    0.8000000000E+02    0.8000000000E+02    0.5109988851E-03    0    0
  -11   -1    0    0    0    0    0.0000000000E+00    0.0000000000E+00   -0.8000000000E+02    0.8000000000E+02    0.5109988851E-03    0    0
  -24    2    1    2    0    0   -0.1000288248E+01    0.5593566418E+01    0.9877409935E+01    0.7899573517E+02    0.7816952515E+02    0    0
   24    2    1    2    0    0    0.1000289679E+01   -0.5593566895E+01   -0.9860453606E+01    0.8098730469E+02    0.8018370819E+02    0    0
   22    1    1    2    0    0   -0.1455554525E-05    0.8585322462E-06   -0.1695713960E-01    0.1695713960E-01    0.0000000000E+00    0    0
   15    2    3    3    0    0    0.1334107208E+02    0.5205019951E+01    0.4167977142E+02    0.4410711670E+02    0.1777029991E+01    0    0
  -16    1    3    3    0    0   -0.1434136009E+02    0.3885464370E+00   -0.3180236244E+02    0.3488861847E+02    0.0000000000E+00    0    0
   16    1    4    4    0    0    0.2081970787E+02   -0.3735862350E+02   -0.7580357552E+01    0.4343487930E+02    0.0000000000E+00    0    0
  -15    2    4    4    0    0   -0.1981941795E+02    0.3176505661E+02   -0.2280095577E+01    0.3755242538E+02    0.1777029991E+01    0    0
   16    1    6    6    0    0    0.6334884167E+01    0.2135793686E+01    0.2072701454E+02    0.2177846336E+02    0.2729575208E-03    0    0
  -24    2    6    6    0    0    0.7006712437E+01    0.3069431067E+01    0.2095439911E+02    0.2233038902E+02    0.1021755576E+01    0    0
 -211    1   11   11    0    0    0.6213582754E+00    0.1630993634E+00    0.1915119648E+01    0.2024808645E+01    0.1395682395E+00    0    0
  111    1   11   11    0    0    0.5931503773E+01    0.2892411232E+01    0.1763862610E+02    0.1883316422E+02    0.1349639595E+00    0    0
   22    1   11   11    0    0    0.4538495541E+00    0.1391999517E-01    0.1400651097E+01    0.1472411752E+01    0.6585188385E-04    0    0
  -16    1    9    9    0    0   -0.3635848761E+01    0.6371124268E+01   -0.5872910023E+00    0.7359044075E+01    0.6559504545E-03    0    0
   24    2    9    9    0    0   -0.1618434906E+02    0.2539518166E+02   -0.1692894220E+01    0.3019485855E+02    0.1419614792E+01    0    0
  321    1   16   16    0    0   -0.5342189312E+01    0.8917516708E+01   -0.7932614684E+00    0.1043714809E+02    0.4936670363E+00    0    0
  211    1   16   16    0    0   -0.9152765274E+01    0.1393723488E+02   -0.9717364907E+00    0.1670279503E+02    0.1395681947E+00    0    0
 -211    1   16   16    0    0   -0.1689394116E+01    0.2540430069E+01    0.7210376114E-01    0.3054916620E+01    0.1395681202E+00    0    0
</event>
<event>
   18 9999    1    0.9119999695E+02    0.7565275169E-02    0.1185000000E+00
   11   -1    0    0    0    0    0.0000000000E+00    0.0000000000E+00    0.8000000000E+02    0.8000000000E+02    0.5109988851E-03    0    0
  -11   -1    0    0    0    0    0.0000000000E+00    0.0000000000E+00   -0.8000000000E+02    0.8000000000E+02    0.5109988851E-03    0    0
  -24    2    1    2    0    0   -0.5920693874E+00    0.3758303165E+01    0.2492562771E+01    0.7904428101E+02    0.7891330719E+02    0    0
   24    2    1    2    0    0    0.5920693874E+00   -0.3758303165E+01   -0.2492562771E+01    0.8095571899E+02    0.8082784271E+02    0    0
   15    2    3    3    0    0   -0.2234280586E+02   -0.1838373375E+02   -0.2446615601E+02    0.3793301010E+02    0.1777029991E+01    0    0
  -16    1    3    3    0    0    0.2175073624E+02    0.2214203644E+02    0.2695871925E+02    0.4111127472E+02    0.0000000000E+00    0    0
   16    1    4    4    0    0    0.3044726372E+02   -0.2788862610E+02   -0.8228566170E+01    0.4210131454E+02    0.0000000000E+00    0    0
  -15    2    4    4    0    0   -0.2985519409E+02    0.2413032341E+02    0.5736002922E+01    0.3885440445E+02    0.1777029991E+01    0    0
   16    1    5    5    0    0   -0.6095122814E+01   -0.5016002655E+01   -0.6761009216E+01    0.1039336586E+02    0.3526068176E-03    0    0
  -24    2    5    5    0    0   -0.1624856186E+02   -0.1336845493E+02   -0.1770611000E+02    0.2754113770E+02    0.1508832097E+01    0    0
  221    1   10   10    0    0   -0.6038635254E+01   -0.4895796776E+01   -0.6966163635E+01    0.1045287323E+02    0.5487998724E+00    0    0
 -211    1   10   10    0    0   -0.4486025810E+01   -0.3944175005E+01   -0.5259651661E+01    0.7960173130E+01    0.1395678818E+00    0    0
  111    1   10   10    0    0   -0.5723902702E+01   -0.4528484344E+01   -0.5480297089E+01    0.9128094673E+01    0.1349641681E+00    0    0
  -16    1    8    8    0    0   -0.1213761234E+02    0.9564028740E+01    0.2089878559E+01    0.1559358406E+02    0.2660460887E-03    0    0
   24    2    8    8    0    0   -0.1771875763E+02    0.1456724453E+02    0.3646350384E+01    0.2326235008E+02    0.1296936393E+01    0    0
  321    1   15   15    0    0   -0.1398526382E+02    0.1140811920E+02    0.2877176046E+01    0.1828263283E+02    0.4936670065E+00    0    0
  211    1   15   15    0    0   -0.2148625374E+01    0.2092100620E+01    0.5407031775E+00    0.3050461531E+01    0.1395684034E+00    0    0
 -211    1   15   15    0    0   -0.1584867716E+01    0.1067024231E+01    0.2284708470E+00    0.1929254889E+01    0.1395680010E+00    0    0
</event>
<event>
   20 9999    1    0.9119999695E+02    0.7565275169E-02    0.1185000000E+00
   11   -1    0    0    0    0    0.0000000000E+00    0.0000000000E+00    0.8000000000E+02    0.8000000000E+02    0.5109988851E-03    0    0
  -11   -1    0    0    0    0    0.0000000000E+00    0.0000000000E+00   -0.8000000000E+02    0.8000000000E+02    0.5109988851E-03    0    0
  -24    2    1    2    0    0   -0.3004891634E+01   -0.2885662317E+01    0.6299670041E-01    0.7958750916E+02    0.7947836304E+02    0    0
   24    2    1    2    0    0    0.3004891634E+01    0.2885662317E+01   -0.6287072599E-01    0.8041183472E+02    0.8030381775E+02    0    0
   22    1    1    2    0    0    0.3484480260E-06    0.1548806523E-06   -0.3933079424E-03    0.3933081462E-03    0.0000000000E+00    0    0
   22    1    1    2    0    0   -0.1871895279E-06   -0.9154902614E-07    0.2673352719E-03    0.2673353592E-03    0.0000000000E+00    0    0
   15    2    3    3    0    0    0.1386270881E+01   -0.2110993004E+02    0.3442493057E+02    0.4044483566E+02    0.1777029991E+01    0    0
  -16    1    3    3    0    0   -0.4391162395E+01    0.1822426796E+02   -0.3436193466E+02    0.3914267349E+02    0.0000000000E+00    0    0
   16    1    4    4    0    0    0.1157299399E+01   -0.3337878799E+02   -0.2001984406E+02    0.3893940353E+02    0.0000000000E+00    0    0
  -15    2    4    4    0    0    0.1847592115E+01    0.3626445007E+02    0.1995697212E+02    0.4147243118E+02    0.1777029991E+01    0    0
   16    1    7    7    0    0   -0.3838289902E-01   -0.8636608124E+00    0.1053436995E+01    0.1362759233E+01    0.4162042751E-03    0    0
  -24    2    7    7    0    0    0.1424708366E+01   -0.2024710083E+02    0.3337284851E+02    0.3908366394E+02    0.1345769644E+01    0    0
  111    1   12   12    0    0   -0.4537001997E-01   -0.8875995278E+00    0.1719188809E+01    0.1940029979E+01    0.1349634081E+00    0    0
  111    1   12   12    0    0    0.6167868376E+00   -0.7509063721E+01    0.1278238964E+02    0.1483826733E+02    0.1349642873E+00    0    0
 -321    1   12   12    0    0    0.8532915115E+00   -0.1185043621E+02    0.1887126923E+02    0.2230536842E+02    0.4936670065E+00    0    0
  -16    1   10   10    0    0    0.5606132746E+00    0.1234219265E+02    0.6716298103E+01    0.1406245613E+02    0.2304026566E-03    0    0
   24    2   10   10    0    0    0.1287051558E+01    0.2392368507E+02    0.1324145985E+02    0.2741160774E+02    0.1435534239E+01    0    0
  211    1   17   17    0    0   -0.7540491223E-01    0.8985613585E+00    0.5218148232E+00    0.1051127195E+01    0.1395679265E+00    0    0
  130    1   17   17    0    0    0.5024666190E+00    0.9896571159E+01    0.5095528603E+01    0.1115377617E+02    0.4977199733E+00    0    0
  111    1   17   17    0    0    0.8599900007E+00    0.1312855530E+02    0.7624118328E+01    0.1520670700E+02    0.1349640936E+00    0    0
</event>
<event>
   20 9999    1    0.9119999695E+02    0.7565275169E-02    0.1185000000E+00
   11   -1    0    0    0    0    0.0000000000E+00    0.0000000000E+00    0.8000000000E+02    0.8000000000E+02    0.5109988851E-03    0    0
  -11   -1    0    0    0    0    0.0000000000E+00    0.0000000000E+00   -0.8000000000E+02    0.8000000000E+02    0.5109988851E-03    0    0
  -24    2    1    2    0    0    0.2219083405E+02    0.1118470192E+02   -0.1584659195E+02    0.7702347565E+02    0.7116158295E+02    0    0
   24    2    1    2    0    0   -0.2219083405E+02   -0.1118470192E+02    0.1584659195E+02    0.8297652435E+02    0.7756582642E+02    0    0
   15    2    3    3    0    0    0.2961810303E+02   -0.7071340084E+01    0.1974771881E+02    0.3633684158E+02    0.1777029991E+01    0    0
  -16    1    3    3    0    0   -0.7427268505E+01    0.1825604248E+02   -0.3559431076E+02    0.4068663406E+02    0.0000000000E+00    0    0
   16    1    4    4    0    0    0.2360367775E+02   -0.2246341324E+02    0.1475005341E+02    0.3576733780E+02    0.0000000000E+00    0    0
  -15    2    4    4    0    0   -0.4579450989E+02    0.1127871227E+02    0.1096538663E+01    0.4720918274E+02    0.1777029991E+01    0    0
   16    1    5    5    0    0    0.7986739278E+00   -0.1209101975E+00    0.3596573174E+00    0.8842245936E+00    0.6239333306E-03    0    0
  -24    2    5    5    0    0    0.2882059479E+02   -0.6950707912E+01    0.1938883972E+02    0.3545404816E+02    0.1457194805E+01    0    0
 -211    1   10   10    0    0    0.7662169456E+01   -0.1785996795E+01    0.4957836628E+01    0.9300443649E+01    0.1395678669E+00    0    0
 -211    1   10   10    0    0    0.5826951981E+01   -0.1418709636E+01    0.3992976189E+01    0.7206208706E+01    0.1395679414E+00    0    0
  211    1   10   10    0    0    0.3071327448E+01   -0.5152308941E+00    0.1775722980E+01    0.3587643623E+01    0.1395680010E+00    0    0
  111    1   10   10    0    0    0.4739410400E+01   -0.1216424465E+01    0.3203763962E+01    0.5850130081E+01    0.1349639744E+00    0    0
  111    1   10   10    0    0    0.7520732403E+01   -0.2014345884E+01    0.5458537579E+01    0.9509618759E+01    0.1349638104E+00    0    0
  -16    1    8    8    0    0   -0.1207927227E+02    0.3121600866E+01    0.4281359166E-01    0.1247617912E+02    0.5822383100E-03    0    0
   24    2    8    8    0    0   -0.3371704102E+02    0.8157554626E+01    0.1053768158E+01    0.3473485947E+02    0.1419696689E+01    0    0
  321    1   17   17    0    0   -0.1131171799E+02    0.2513597965E+01    0.5911355019E+00    0.1161319447E+02    0.4936670363E+00    0    0
  211    1   17   17    0    0   -0.1065228271E+02    0.2606133223E+01   -0.1132391468E+00    0.1096792412E+02    0.1395680606E+00    0    0
 -211    1   17   17    0    0   -0.1175303841E+02    0.3037823439E+01    0.5758718252E+00    0.1215373993E+02    0.1395679861E+00    0    0
</event>
<event>
   16 9999    1    0.9119999695E+02    0.7565275169E-02    0.1185000000E+00
   11   -1    0    0    0    0    0.0000000000E+00    0.0000000000E+00    0.8000000000E+02    0.8000000000E+02    0.5109988851E-03    0    0
  -11   -1    0    0    0    0    0.0000000000E+00    0.0000000000E+00   -0.8000000000E+02    0.8000000000E+02    0.5109988851E-03    0    0
  -24    2    1    2    0    0    0.1115117168E+02   -0.1052076721E+02   -0.2203853798E+02    0.7372894287E+02    0.6866749573E+02    0    0
   24    2    1    2    0    0   -0.1120177555E+02    0.1081728172E+02    0.2197441101E+02    0.8596138763E+02    0.8163327789E+02    0    0
   22    1    1    2    0    0    0.5060643703E-01   -0.2965177000E+00    0.6148396432E-01    0.3070244789E+00    0.0000000000E+00    0    0
   22    1    1    2    0    0   -0.1896706408E-05    0.3321843451E-05    0.2642513020E-02    0.2642515814E-02    0.0000000000E+00    0    0
   15    2    3    3    0    0   -0.2710119247E+02   -0.1435938549E+02   -0.3114369631E+01    0.3087917900E+02    0.1777029991E+01    0    0
  -16    1    3    3    0    0    0.3825236511E+02    0.3838617563E+01   -0.1892416954E+02    0.4284976578E+02    0.0000000000E+00    0    0
   16    1    4    4    0    0   -0.7507321835E+01    0.3447269058E+02    0.4189036179E+02    0.5476795578E+02    0.0000000000E+00    0    0
  -15    2    4    4    0    0   -0.3694454193E+01   -0.2365540886E+02   -0.1991595078E+02    0.3119343376E+02    0.1777029991E+01    0    0
   16    1    7    7    0    0   -0.7335331440E+01   -0.3580918789E+01   -0.1248608470E+01    0.8257668495E+01    0.0000000000E+00    0    0
  -24    2    7    7    0    0   -0.1976692772E+02   -0.1077903080E+02   -0.1865883708E+01    0.2262272453E+02    0.1177819967E+01    0    0
 -321    1   12   12    0    0   -0.7038732052E+01   -0.3709498167E+01   -0.4160030484E+00    0.7982536316E+01    0.4936669767E+00    0    0
  130    1   12   12    0    0   -0.1272819519E+02   -0.7069532871E+01   -0.1449880719E+01    0.1464018917E+02    0.4977200329E+00    0    0
  -16    1   10   10    0    0   -0.2432073355E+01   -0.1934777260E+02   -0.1572049809E+02    0.2504766273E+02    0.2441406250E-03    0    0
  211    1   10   10    0    0   -0.1262526512E+01   -0.4308568001E+01   -0.4196237564E+01    0.6147000790E+01    0.1395681798E+00    0    0
</event>
<event>
   17 9999    1    0.9119999695E+02    0.7565275169E-02    0.1185000000E+00
   11   -1    0    0    0    0    0.0000000000E+00    0.0000000000E+00    0.8000000000E+02    0.8000000000E+02    0.5109988851E-03    0    0
  -11   -1    0    0    0    0    0.0000000000E+00    0.0000000000E+00   -0.8000000000E+02    0.8000000000E+02    0.5109988851E-03    0    0
  -24    2    1    2    0    0   -0.2742078066E+01    0.3867364883E+01    0.1745627213E+02    0.7886685944E+02    0.7676447296E+02    0    0
   24    2    1    2    0    0    0.2758368015E+01   -0.3868933916E+01   -0.1734152985E+02    0.8101723480E+02    0.7899674988E+02    0    0
   22    1    1    2    0    0   -0.1629016362E-01    0.1569090295E-02   -0.1147425994E+00    0.1159038171E+00    0.0000000000E+00    0    0
   15    2    3    3    0    0    0.7007289886E+01   -0.2011865807E+02    0.3946617508E+02    0.4488428879E+02    0.1777029991E+01    0    0
  -16    1    3    3    0    0   -0.9749367714E+01    0.2398602295E+02   -0.2200990295E+02    0.3398257446E+02    0.0000000000E+00    0    0
   16    1    4    4    0    0   -0.1893416214E+02    0.3057596016E+02    0.1781026602E+01    0.3600783157E+02    0.0000000000E+00    0    0
  -15    2    4    4    0    0    0.2169252968E+02   -0.3444489288E+02   -0.1912255669E+02    0.4500940323E+02    0.1777029991E+01    0    0
   16    1    6    6    0    0    0.2312676907E+01   -0.6010736465E+01    0.1118225765E+02    0.1290427494E+02    0.1220703125E-03    0    0
  -24    2    6    6    0    0    0.4694888592E+01   -0.1410871315E+02    0.2828547096E+02    0.3198177910E+02    0.1291744471E+01    0    0
 -321    1   11   11    0    0    0.3607704163E+01   -0.9986650467E+01    0.1982925034E+02    0.2249870300E+02    0.4936669767E+00    0    0
  310    1   11   11    0    0    0.1087184191E+01   -0.4122061729E+01    0.8456218719E+01    0.9483076096E+01    0.4977200031E+00    0    0
  -16    1    9    9    0    0    0.1701937199E+01   -0.2125148535E+01   -0.1506388187E+01    0.3111599445E+01    0.2516543900E-03    0    0
  323    2    9    9    0    0    0.1999144554E+02   -0.3232109833E+02   -0.1761692047E+02    0.4189957428E+02    0.9524539709E+00    0    0
  211    1   15   15    0    0    0.3444792509E+01   -0.6081581593E+01   -0.3189520597E+01    0.7684058189E+01    0.1395678669E+00    0    0
  310    1   15   15    0    0    0.1654665184E+02   -0.2623951530E+02   -0.1442739868E+02    0.3421551514E+02    0.4977199435E+00    0    0
</event>
<event>
   16 9999    1    0.9119999695E+02    0.7565275169E-02    0.1185000000E+00
   11   -1    0    0    0    0    0.0000000000E+00    0.0000000000E+00    0.8000000000E+02    0.8000000000E+02    0.5109988851E-03    0    0
  -11   -1    0    0    0    0    0.0000000000E+00    0.0000000000E+00   -0.8000000000E+02    0.8000000000E+02    0.5109988851E-03    0    0
  -24    2    1    2    0    0   -0.3484157324E+01   -0.2256053686E+00    0.1003202057E+02    0.8166156006E+02    0.8096776581E+02    0    0
   24    2    1    2    0    0    0.3484083414E+01    0.2256220132E+00   -0.9981227875E+01    0.7828764343E+02    0.7757022858E+02    0    0
   22    1    1    2    0    0    0.7396303408E-04   -0.1663726835E-04   -0.5079296604E-01    0.5079302192E-01    0.0000000000E+00    0    0
   15    2    3    3    0    0    0.1332951736E+02    0.2278666115E+02    0.3492844772E+02    0.4381851578E+02    0.1777029991E+01    0    0
  -16    1    3    3    0    0   -0.1681367493E+02   -0.2301226616E+02   -0.2489642715E+02    0.3784304810E+02    0.0000000000E+00    0    0
   16    1    4    4    0    0   -0.4280141830E+01    0.3605890274E+02   -0.1827960777E+02    0.4065351105E+02    0.0000000000E+00    0    0
  -15    2    4    4    0    0    0.7764225006E+01   -0.3583327866E+02    0.8298378944E+01    0.3763413239E+02    0.1777029991E+01    0    0
   16    1    6    6    0    0    0.1027464771E+02    0.1601052856E+02    0.2526004791E+02    0.3162238884E+02    0.9091472748E-04    0    0
 -211    1    6    6    0    0    0.3055394888E+01    0.6777030468E+01    0.9669776917E+01    0.1219785404E+02    0.1395681947E+00    0    0
  -16    1    9    9    0    0    0.4897356629E+00   -0.2977015018E+01    0.4558747411E+00    0.3051275492E+01    0.2283726499E-03    0    0
   24    2    9    9    0    0    0.7274795055E+01   -0.3285767365E+02    0.7842831135E+01    0.3458433914E+02    0.1420256853E+01    0    0
  130    1   13   13    0    0    0.4513298512E+01   -0.2007552910E+02    0.4809452534E+01    0.2113706017E+02    0.4977200329E+00    0    0
  211    1   13   13    0    0    0.1053377509E+01   -0.5202004433E+01    0.1414793253E+01    0.5494686127E+01    0.1395683736E+00    0    0
  130    1   13   13    0    0    0.1708117962E+01   -0.7580137730E+01    0.1618584514E+01    0.7952590466E+01    0.4977200031E+00    0    0
</event>
<event>
   16 9999    1    0.9119999695E+02    0.7565275169E-02    0.1185000000E+00
   11   -1    0    0    0    0    0.0000000000E+00    0.0000000000E+00    0.8000000000E+02    0.8000000000E+02    0.5109988851E-03    0    0
  -11   -1    0    0    0    0    0.0000000000E+00    0.0000000000E+00   -0.8000000000E+02    0.8000000000E+02    0.5109988851E-03    0    0
  -24    2    1    2    0    0   -0.2111769676E+02    0.3180954218E+01   -0.2176727486E+02    0.8589410400E+02    0.8029886627E+02    0    0
   24    2    1    2    0    0    0.2111769676E+02   -0.3180954218E+01    0.2176727486E+02    0.7410589600E+02    0.6754105377E+02    0    0
   15    2    3    3    0    0   -0.2885338402E+02    0.3642532349E+02   -0.2208502054E+01    0.4655488205E+02    0.1777029991E+01    0    0
  -16    1    3    3    0    0    0.7735687256E+01   -0.3324436569E+02   -0.1955877304E+02    0.3933922195E+02    0.0000000000E+00    0    0
   16    1    4    4    0    0   -0.2048669243E+02    0.3837131500E+01    0.2403724289E+02    0.3181536102E+02    0.0000000000E+00    0    0
  -15    2    4    4    0    0    0.4160438919E+02   -0.7018085957E+01   -0.2269968033E+01    0.4229053497E+02    0.1777029991E+01    0    0
   16    1    5    5    0    0   -0.1287092805E+01    0.1341057420E+01   -0.3043470718E-01    0.1859023809E+01    0.6864759489E-03    0    0
  -24    2    5    5    0    0   -0.2756742477E+02    0.3508569717E+02   -0.2178154230E+01    0.4469768906E+02    0.1473112941E+01    0    0
 -211    1   10   10    0    0   -0.4187045097E+01    0.4742204189E+01   -0.4866098762E+00    0.6346346855E+01    0.1395677328E+00    0    0
  130    1   10   10    0    0   -0.1131117821E+02    0.1471186256E+02   -0.9272640944E+00    0.1858733940E+02    0.4977200329E+00    0    0
  111    1   10   10    0    0   -0.1206919861E+02    0.1563162613E+02   -0.7642800212E+00    0.1976399803E+02    0.1349638849E+00    0    0
  -16    1    8    8    0    0    0.1249194241E+02   -0.1838678122E+01   -0.1093760371E+01    0.1267381763E+02    0.1220703125E-03    0    0
  -11    1    8    8    0    0    0.2220335388E+02   -0.4125925064E+01   -0.1371397495E+01    0.2262504959E+02    0.5355813191E-03    0    0
   12    1    8    8    0    0    0.6910732269E+01   -0.1053759217E+01    0.1951002777E+00    0.6993331909E+01    0.1726334885E-03    0    0
</event>
<event>
   23 9999    1    0.9119999695E+02    0.7565275169E-02    0.1185000000E+00
   11   -1    0    0    0    0    0.0000000000E+00    0.0000000000E+00    0.8000000000E+02    0.8000000000E+02    0.5109988851E-03    0    0
  -11   -1    0    0    0    0    0.0000000000E+00    0.0000000000E+00   -0.8000000000E+02    0.8000000000E+02    0.5109988851E-03    0    0
  -24    2    1    2    0    0    0.4090527058E+01   -0.3384275675E+01    0.3096632957E+01    0.8098136139E+02    0.8074779510E+02    0    0
   24    2    1    2    0    0   -0.4090527058E+01    0.3384275675E+01   -0.3096549034E+01    0.7901855469E+02    0.7877916718E+02    0    0
   22    1    1    2    0    0   -0.2750572570E-07    0.1705856079E-07   -0.8392064046E-04    0.8392064774E-04    0.0000000000E+00    0    0
   15    2    3    3    0    0    0.3594288254E+02   -0.1425378084E+01   -0.2036359978E+02    0.4137337875E+02    0.1777029991E+01    0    0
  -16    1    3    3    0    0   -0.3185235405E+02   -0.1958897591E+01    0.2346023178E+02    0.3960798264E+02    0.0000000000E+00    0    0
   16    1    4    4    0    0   -0.3202209473E+02    0.8541949272E+01    0.2305196381E+02    0.4037044144E+02    0.0000000000E+00    0    0
  -15    2    4    4    0    0    0.2793156815E+02   -0.5157673836E+01   -0.2614851379E+02    0.3864811325E+02    0.1777029991E+01    0    0
   16    1    6    6    0    0    0.8674661636E+01   -0.6494079232E+00   -0.4899065971E+01    0.9983603477E+01    0.5331713473E-03    0    0
  -24    2    6    6    0    0    0.2726963615E+02   -0.7760263085E+00   -0.1546533680E+02    0.3139140701E+02    0.1417201877E+01    0    0
 -321    1   11   11    0    0    0.1609489822E+02   -0.8192880750E+00   -0.9245282173E+01    0.1858590698E+02    0.4936668575E+00    0    0
  111    1   11   11    0    0    0.2706212044E+01    0.1102515147E-02   -0.1451098680E+01    0.3073676586E+01    0.1349640340E+00    0    0
  130    1   11   11    0    0    0.8468526840E+01    0.4215934500E-01   -0.4768956661E+01    0.9731823921E+01    0.4977200031E+00    0    0
  -16    1    9    9    0    0    0.5985886574E+01   -0.1071954012E+01   -0.5654815674E+01    0.8304027557E+01    0.5394796608E-04    0    0
   24    2    9    9    0    0    0.2194678116E+02   -0.4085922718E+01   -0.2049472618E+02    0.3034560776E+02    0.1570389986E+01    0    0
  211    1   16   16    0    0    0.2437433958E+01   -0.4509968460E+00   -0.1866729140E+01    0.3106225967E+01    0.1395678222E+00    0    0
  211    1   16   16    0    0    0.4055269241E+01   -0.7797817588E+00   -0.3763258457E+01    0.5588816166E+01    0.1395679861E+00    0    0
 -211    1   16   16    0    0    0.6548660755E+01   -0.1051740408E+01   -0.6282989025E+01    0.9137097359E+01    0.1395680159E+00    0    0
  111    1   16   16    0    0    0.2781916618E+01   -0.5471383929E+00   -0.2565501213E+01    0.3826020241E+01    0.1349639893E+00    0    0
  111    1   16   16    0    0    0.3642692089E+01   -0.8523679972E+00   -0.3487854719E+01    0.5116549969E+01    0.1349639893E+00    0    0
  111    1   16   16    0    0    0.1796362877E+01   -0.2701211870E+00   -0.1900479198E+01    0.2632474661E+01    0.1349639744E+00    0    0
   22    1   16   16    0    0    0.6844512224E+00   -0.1337775141E+00   -0.6279212832E+00    0.9384322166E+00    0.0000000000E+00    0    0
</event>
<event>
   20 9999    1    0.9119999695E+02    0.7565275169E-02    0.1185000000E+00
   11   -1    0    0    0    0    0.0000000000E+00    0.0000000000E+00    0.8000000000E+02    0.8000000000E+02    0.5109988851E-03    0    0
  -11   -1    0    0    0    0    0.0000000000E+00    0.0000000000E+00   -0.8000000000E+02    0.8000000000E+02    0.5109988851E-03    0    0
  -24    2    1    2    0    0   -0.1140479660E+02   -0.2642998934E+01   -0.1124141979E+02    0.7663437653E+02    0.7489595032E+02    0    0
   24    2    1    2    0    0    0.1140479660E+02    0.2642998934E+01    0.1124141979E+02    0.8336562347E+02    0.8177042389E+02    0    0
   15    2    3    3    0    0    0.3163651848E+02   -0.2985513210E+01   -0.1073604393E+02    0.3358873367E+02    0.1777029991E+01    0    0
  -16    1    3    3    0    0   -0.4304131317E+02    0.3425142467E+00   -0.5053757429E+00    0.4304564285E+02    0.0000000000E+00    0    0
   16    1    4    4    0    0    0.3868362045E+02   -0.1921461487E+02    0.1952051735E+02    0.4739909744E+02    0.0000000000E+00    0    0
  -15    2    4    4    0    0   -0.2727882385E+02    0.2185761261E+02   -0.8279097557E+01    0.3596652222E+02    0.1777029991E+01    0    0
   16    1    5    5    0    0    0.1689017296E+01   -0.1774491929E-01   -0.4974820018E+00    0.1760847092E+01    0.6473755639E-04    0    0
  -24    2    5    5    0    0    0.2994874763E+02   -0.2967885971E+01   -0.1023898506E+02    0.3182921028E+02    0.1589337111E+01    0    0
 -211    1   10   10    0    0    0.6742881298E+01   -0.7370109558E+00   -0.2208005667E+01    0.7134732246E+01    0.1395680308E+00    0    0
 -211    1   10   10    0    0    0.1152379131E+02   -0.1226357818E+01   -0.4110784531E+01    0.1229714394E+02    0.1395680457E+00    0    0
 -211    1   10   10    0    0    0.1306555152E+01    0.4551439360E-01   -0.3501176536E+00    0.1360595226E+01    0.1395680606E+00    0    0
  211    1   10   10    0    0    0.2388476849E+01   -0.2294004709E+00   -0.7349361181E+00    0.2513375759E+01    0.1395680010E+00    0    0
  211    1   10   10    0    0    0.6174114227E+01   -0.6691526175E+00   -0.2112875223E+01    0.6561338902E+01    0.1395680308E+00    0    0
  111    1   10   10    0    0    0.1812927127E+01   -0.1514784545E+00   -0.7222656012E+00    0.1962022781E+01    0.1349640191E+00    0    0
  -16    1    8    8    0    0   -0.1223113823E+02    0.9452358246E+01   -0.4331836700E+01    0.1605343056E+02    0.2990099892E-03    0    0
  213    2    8    8    0    0   -0.1504875946E+02    0.1240611553E+02   -0.3947587013E+01    0.1991450882E+02    0.7920513153E+00    0    0
  211    1   18   18    0    0   -0.9964353561E+01    0.7934298992E+01   -0.2859435558E+01    0.1305516338E+02    0.1395679265E+00    0    0
  111    1   18   18    0    0   -0.5084406376E+01    0.4471816540E+01   -0.1088151336E+01    0.6859345436E+01    0.1349643469E+00    0    0
</event>
<event>
   20 9999    1    0.9119999695E+02    0.7565275169E-02    0.1185000000E+00
   11   -1    0    0    0    0    0.0000000000E+00    0.0000000000E+00    0.8000000000E+02    0.8000000000E+02    0.5109988851E-03    0    0
  -11   -1    0    0    0    0    0.0000000000E+00    0.0000000000E+00   -0.8000000000E+02    0.8000000000E+02    0.5109988851E-03    0    0
  -24    2    1    2    0    0    0.3800022364E+01   -0.7306477070E+01    0.8215727806E+01    0.8027532196E+02    0.7942797852E+02    0    0
   24    2    1    2    0    0   -0.3800029278E+01    0.7306470871E+01   -0.8110521317E+01    0.7961947632E+02    0.7877598572E+02    0    0
   22    1    1    2    0    0    0.6713601579E-05    0.6162878890E-05   -0.1052065119E+00    0.1052065119E+00    0.0000000000E+00    0    0
   15    2    3    3    0    0    0.3585574341E+02    0.1429432869E+02    0.1418583965E+02    0.4116258240E+02    0.1777029991E+01    0    0
  -16    1    3    3    0    0   -0.3205572128E+02   -0.2160080528E+02   -0.5970111847E+01    0.3911273956E+02    0.0000000000E+00    0    0
   16    1    4    4    0    0    0.7125699997E+01   -0.7420534134E+01    0.3300169754E+02    0.3456807709E+02    0.0000000000E+00    0    0
  -15    2    4    4    0    0   -0.1092572880E+02    0.1472700500E+02   -0.4111221695E+02    0.4505139923E+02    0.1777029991E+01    0    0
   16    1    6    6    0    0    0.7361607075E+01    0.3081209183E+01    0.2970692873E+01    0.8515405655E+01    0.2964684973E-03    0    0
  -24    2    6    6    0    0    0.2849555016E+02    0.1121368217E+02    0.1121570587E+02    0.3264879990E+02    0.1552069426E+01    0    0
  221    1   11   11    0    0    0.1752742767E+02    0.6461325645E+01    0.7055265903E+01    0.1997591972E+02    0.5488000512E+00    0    0
 -211    1   11   11    0    0    0.4076628685E+01    0.1822091818E+01    0.1843301654E+01    0.4832821369E+01    0.1395679563E+00    0    0
  111    1   11   11    0    0    0.6891490459E+01    0.2930263758E+01    0.2317137003E+01    0.7840052605E+01    0.1349637955E+00    0    0
  -16    1    9    9    0    0   -0.4336635113E+01    0.5198489666E+01   -0.1560509396E+02    0.1701028061E+02    0.5303389626E-03    0    0
   24    2    9    9    0    0   -0.6589523315E+01    0.9529094696E+01   -0.2550873947E+02    0.2804288864E+02    0.1217511892E+01    0    0
  211    1   16   16    0    0   -0.1155121326E+01    0.1223597407E+01   -0.3940354347E+01    0.4286883354E+01    0.1395679861E+00    0    0
  211    1   16   16    0    0   -0.1397763371E+01    0.2485176325E+01   -0.6177424431E+01    0.6805137157E+01    0.1395678967E+00    0    0
 -211    1   16   16    0    0   -0.2999314308E+01    0.4438717842E+01   -0.1202356720E+02    0.1316372871E+02    0.1395680308E+00    0    0
  111    1   16   16    0    0   -0.1037325025E+01    0.1381604075E+01   -0.3367396593E+01    0.3787142515E+01    0.1349640191E+00    0    0
</event>
<event>
   21 9999    1    0.9119999695E+02    0.7565275169E-02    0.1185000000E+00
   11   -1    0    0    0    0    0.0000000000E+00    0.0000000000E+00    0.8000000000E+02    0.8000000000E+02    0.5109988851E-03    0    0
  -11   -1    0    0    0    0    0.0000000000E+00    0.0000000000E+00   -0.8000000000E+02    0.8000000000E+02    0.5109988851E-03    0    0
  -24    2    1    2    0    0    0.4535314083E+01   -0.8369071960E+01   -0.5074533939E+01    0.7990536499E+02    0.7917389679E+02    0    0
   24    2    1    2    0    0   -0.4636240959E+01    0.8311181068E+01    0.5006999493E+01    0.7988970184E+02    0.7916263580E+02    0    0
   22    1    1    2    0    0    0.1009274274E+00    0.5789053068E-01    0.1113923416E+00    0.1610773504E+00    0.0000000000E+00    0    0
   22    1    1    2    0    0   -0.4410789529E-06    0.2792875797E-07   -0.4385798797E-01    0.4385798797E-01    0.0000000000E+00    0    0
   15    2    3    3    0    0   -0.2929139376E+01   -0.1767164993E+02    0.3431494904E+02    0.3874971771E+02    0.1777029991E+01    0    0
  -16    1    3    3    0    0    0.7464453220E+01    0.9302577019E+01   -0.3938948441E+02    0.4115564728E+02    0.0000000000E+00    0    0
   16    1    4    4    0    0    0.1702212524E+02   -0.2116711998E+02    0.2606420326E+02    0.3764495087E+02    0.0000000000E+00    0    0
  -15    2    4    4    0    0   -0.2165836525E+02    0.2947830009E+02   -0.2105720329E+02    0.4224474716E+02    0.1777029991E+01    0    0
   16    1    7    7    0    0   -0.5167675391E-01   -0.1536635995E+01    0.3531978607E+01    0.3852115393E+01    0.2589502255E-03    0    0
  -24    2    7    7    0    0   -0.2877578020E+01   -0.1613570976E+02    0.3078432274E+02    0.3489912796E+02    0.1277930379E+01    0    0
  111    1   12   12    0    0   -0.1363238215E+01   -0.6277795315E+01    0.1186052704E+02    0.1348923492E+02    0.1349640042E+00    0    0
  111    1   12   12    0    0   -0.5644280314E+00   -0.4818771362E+01    0.8740428925E+01    0.9997622490E+01    0.1349641830E+00    0    0
 -321    1   12   12    0    0   -0.9499118328E+00   -0.5039142132E+01    0.1018336582E+02    0.1141227150E+02    0.4936670065E+00    0    0
  -16    1   10   10    0    0   -0.1256577492E+02    0.1722589302E+02   -0.1217866421E+02    0.2455504036E+02    0.4025544913E-03    0    0
   24    2   10   10    0    0   -0.9093444824E+01    0.1225356865E+02   -0.8879367828E+01    0.1769137192E+02    0.1140519738E+01    0    0
  211    1   17   17    0    0   -0.1857270956E+01    0.2338704348E+01   -0.1629241705E+01    0.3404834986E+01    0.1395682693E+00    0    0
  211    1   17   17    0    0   -0.7933344245E+00    0.1309990525E+01   -0.1000500917E+01    0.1834648728E+01    0.1395681798E+00    0    0
 -211    1   17   17    0    0   -0.1101051211E+01    0.1395123839E+01   -0.1269937873E+01    0.2188813686E+01    0.1395680457E+00    0    0
  111    1   17   17    0    0   -0.5341788292E+01    0.7209750175E+01   -0.4979687691E+01    0.1026307487E+02    0.1349641234E+00    0    0
</event>
<event>
   24 9999    1    0.9119999695E+02    0.7565275169E-02    0.1185000000E+00
   11   -1    0    0    0    0    0.0000000000E+00    0.0000000000E+00    0.8000000000E+02    0.8000000000E+02    0.5109988851E-03    0    0
  -11   -1    0    0    0    0    0.0000000000E+00    0.0000000000E+00   -0.8000000000E+02    0.8000000000E+02    0.5109988851E-03    0    0
  -24    2    1    2    0    0   -0.2554819679E+02    0.3434953988E+00    0.1189820099E+02    0.7337145996E+02    0.6774197388E+02    0    0
   24    2    1    2    0    0    0.2592568398E+02   -0.1132891059E+01   -0.1090820217E+02    0.8290902710E+02    0.7798392487E+02    0    0
   22    1    1    2    0    0   -0.3822486401E+00    0.7873326540E+00   -0.2273322821E+01    0.2435981035E+01    0.0000000000E+00    0    0
   22    1    1    2    0    0   -0.3697576540E-04    0.1633624925E-03    0.1219712496E+01    0.1219712496E+01    0.0000000000E+00    0    0
   22    1    1    2    0    0    0.4810306709E-02    0.1877944916E-02    0.6351500750E-01    0.6372457743E-01    0.0000000000E+00    0    0
   22    1    1    2    0    0   -0.1123528273E-04    0.2164896796E-04    0.9661658987E-04    0.9964775381E-04    0.0000000000E+00    0    0
   15    2    3    3    0    0    0.1029287624E+02   -0.2256313705E+02    0.1758987427E+02    0.3045652580E+02    0.1777029991E+01    0    0
  -16    1    3    3    0    0   -0.3584107208E+02    0.2290663147E+02   -0.5691674232E+01    0.4291493225E+02    0.0000000000E+00    0    0
   16    1    4    4    0    0   -0.2198136711E+02    0.9090507507E+01    0.1433554935E+02    0.2777275276E+02    0.0000000000E+00    0    0
  -15    2    4    4    0    0    0.4790705109E+02   -0.1022339821E+02   -0.2524375153E+02    0.5513626862E+02    0.1777029991E+01    0    0
   16    1    9    9    0    0    0.1630217791E+01   -0.4327541351E+01    0.3048807859E+01    0.5538993835E+01    0.4587798030E-03    0    0
  -24    2    9    9    0    0    0.8663063049E+01   -0.1823648262E+02    0.1454175949E+02    0.2491872978E+02    0.1364690661E+01    0    0
 -211    1   14   14    0    0    0.1477419734E+01   -0.3671251535E+01    0.2632606745E+01    0.4755097866E+01    0.1395678818E+00    0    0
 -211    1   14   14    0    0    0.2860587597E+01   -0.5635235310E+01    0.4922956467E+01    0.8012104034E+01    0.1395679861E+00    0    0
  211    1   14   14    0    0    0.2066393375E+01   -0.4372434616E+01    0.3520694733E+01    0.5983555317E+01    0.1395679712E+00    0    0
  111    1   14   14    0    0    0.5862419009E+00   -0.1404087186E+01    0.9455695748E+00    0.1796512604E+01    0.1349640042E+00    0    0
  111    1   14   14    0    0    0.1672420979E+01   -0.3153475523E+01    0.2519932270E+01    0.4371461391E+01    0.1349641532E+00    0    0
  -16    1   12   12    0    0    0.1066458321E+02   -0.2610215664E+01   -0.5551169872E+01    0.1230292797E+02    0.2862802648E-03    0    0
20213    2   12   12    0    0    0.3724435425E+02   -0.7613585472E+01   -0.1969357491E+02    0.4283551407E+02    0.1391256690E+01    0    0
  211    1   21   21    0    0    0.5855833054E+01   -0.1551535606E+01   -0.2980771780E+01    0.6752964020E+01    0.1395680010E+00    0    0
  211    1   21   21    0    0    0.1379620075E+02   -0.3008741379E+01   -0.7559795856E+01    0.1601741791E+02    0.1395679414E+00    0    0
 -211    1   21   21    0    0    0.1759231758E+02   -0.3053308010E+01   -0.9153006554E+01    0.2006512833E+02    0.1395679712E+00    0    0
</event>
<event>
   23 9999    1    0.9119999695E+02    0.7565275169E-02    0.1185000000E+00
   11   -1    0    0    0    0    0.0000000000E+00    0.0000000000E+00    0.8000000000E+02    0.8000000000E+02    0.5109988851E-03    0    0
  -11   -1    0    0    0    0    0.0000000000E+00    0.0000000000E+00   -0.8000000000E+02    0.8000000000E+02    0.5109988851E-03    0    0
  -24    2    1    2    0    0    0.9954207420E+01    0.1121075535E+02    0.9238589287E+01    0.8141063690E+02    0.7948316193E+02    0    0
   24    2    1    2    0    0   -0.9955595016E+01   -0.1120944023E+02   -0.9556705475E+01    0.7826671600E+02    0.7622061920E+02    0    0
   22    1    1    2    0    0    0.7033172096E-05   -0.1094665458E-04    0.2192135751E+00    0.2192135751E+00    0.0000000000E+00    0    0
   22    1    1    2    0    0    0.1304674079E-02   -0.1221705112E-02    0.7199638337E-01    0.7201856375E-01    0.0000000000E+00    0    0
   22    1    1    2    0    0    0.6253963534E-06   -0.2481747970E-05    0.2901506796E-01    0.2901506796E-01    0.0000000000E+00    0    0
   22    1    1    2    0    0   -0.2925131071E-06    0.3893027767E-07   -0.2018139232E-02    0.2018139465E-02    0.0000000000E+00    0    0
   22    1    1    2    0    0    0.7444265066E-04   -0.7850491966E-04   -0.2236611617E-03    0.2484533179E-03    0.0000000000E+00    0    0
   22    1    1    2    0    0    0.6391180136E-06   -0.1451621642E-05    0.1334732369E-03    0.1334826520E-03    0.0000000000E+00    0    0
   15    2    3    3    0    0   -0.1308377075E+02    0.1352007389E+02    0.3921653748E+02    0.4353242493E+02    0.1777029991E+01    0    0
  -16    1    3    3    0    0    0.2303797913E+02   -0.2309318066E+01   -0.2997794914E+02    0.3787821198E+02    0.0000000000E+00    0    0
   16    1    4    4    0    0   -0.3585369873E+02    0.1480211163E+02    0.4225522041E+01    0.3901852798E+02    0.0000000000E+00    0    0
  -15    2    4    4    0    0    0.2589810562E+02   -0.2601155090E+02   -0.1378222752E+02    0.3924818802E+02    0.1777029991E+01    0    0
   16    1   11   11    0    0   -0.9410225749E+00    0.9653853774E+00    0.2892150879E+01    0.3190929174E+01    0.7099847426E-03    0    0
  -24    2   11   11    0    0   -0.1214326191E+02    0.1255521965E+02    0.3632592773E+02    0.4034320831E+02    0.1705575466E+01    0    0
 -321    1   16   16    0    0   -0.5421532631E+01    0.5409318447E+01    0.1533861923E+02    0.1715140533E+02    0.4936669767E+00    0    0
  111    1   16   16    0    0   -0.4921267986E+01    0.5181098461E+01    0.1472505379E+02    0.1636789894E+02    0.1349637806E+00    0    0
  310    1   16   16    0    0   -0.1800462127E+01    0.1964803219E+01    0.6262257576E+01    0.6823907375E+01    0.4977200627E+00    0    0
  -16    1   14   14    0    0    0.4291135788E+01   -0.4589521885E+01   -0.2877725124E+01    0.6910778522E+01    0.1220703125E-03    0    0
  323    2   14   14    0    0    0.2160799026E+02   -0.2142305374E+02   -0.1090504551E+02    0.3233895493E+02    0.1017641425E+01    0    0
  211    1   21   21    0    0    0.1315917587E+02   -0.1336287022E+02   -0.6915017128E+01    0.1998917580E+02    0.1395679563E+00    0    0
  310    1   21   21    0    0    0.8448814392E+01   -0.8060185432E+01   -0.3990028858E+01    0.1234978199E+02    0.4977200031E+00    0    0
</event>
<event>
   22 9999    1    0.9119999695E+02    0.7565275169E-02    0.1185000000E+00
   11   -1    0    0    0    0    0.0000000000E+00    0.0000000000E+00    0.8000000000E+02    0.8000000000E+02    0.5109988851E-03    0    0
  -11   -1    0    0    0    0    0.0000000000E+00    0.0000000000E+00   -0.8000000000E+02    0.8000000000E+02    0.5109988851E-03    0    0
  -24    2    1    2    0    0   -0.2606111908E+02    0.1629858017E+02   -0.6293692589E+01    0.8045063782E+02    0.7408015442E+02    0    0
   24    2    1    2    0    0    0.2606295013E+02   -0.1629944038E+02    0.7459447384E+01    0.7838359833E+02    0.7171747589E+02    0    0
   22    1    1    2    0    0   -0.1910714433E-02    0.1044831355E-02   -0.9637815356E+00    0.9637839794E+00    0.0000000000E+00    0    0
   22    1    1    2    0    0    0.7920080679E-04   -0.1840296318E-03   -0.2019733936E+00    0.2019734830E+00    0.0000000000E+00    0    0
   15    2    3    3    0    0   -0.5555643082E+01    0.1619935226E+02    0.3238223648E+02    0.3667494202E+02    0.1777029991E+01    0    0
  -16    1    3    3    0    0   -0.2050547600E+02    0.9922742099E-01   -0.3867593002E+02    0.4377569962E+02    0.0000000000E+00    0    0
   16    1    4    4    0    0    0.2578148270E+02   -0.3063306808E+02   -0.2191899681E+02    0.4564550400E+02    0.0000000000E+00    0    0
  -15    2    4    4    0    0    0.2814674973E+00    0.1433362770E+02    0.2937844467E+02    0.3273809814E+02    0.1777029991E+01    0    0
   16    1    7    7    0    0   -0.8787360787E+00    0.1878513575E+01    0.3852141619E+01    0.4374927044E+01    0.4315837214E-04    0    0
  -24    2    7    7    0    0   -0.4677125454E+01    0.1432147598E+02    0.2853137016E+02    0.3230145645E+02    0.1537823677E+01    0    0
 -211    1   12   12    0    0   -0.8759371638E+00    0.3185025930E+01    0.5467285156E+01    0.6389236450E+01    0.1395679116E+00    0    0
 -211    1   12   12    0    0   -0.6499461532E+00    0.2756685495E+01    0.5685917377E+01    0.6353808403E+01    0.1395679116E+00    0    0
 -211    1   12   12    0    0   -0.1284318805E+01    0.3315856934E+01    0.7256931782E+01    0.8082507133E+01    0.1395679116E+00    0    0
  211    1   12   12    0    0   -0.1014216661E+01    0.2975514889E+01    0.6050439358E+01    0.6819796085E+01    0.1395679712E+00    0    0
  211    1   12   12    0    0   -0.8527067304E+00    0.2088392735E+01    0.4070795059E+01    0.4656108379E+01    0.1395679861E+00    0    0
  -16    1   10   10    0    0    0.2278620899E+00    0.1458667040E+01    0.2665220022E+01    0.3046806335E+01    0.3996521118E-03    0    0
   24    2   10   10    0    0    0.5361647904E-01    0.1287552452E+02    0.2671438217E+02    0.2969257927E+02    0.1486290932E+01    0    0
  310    1   19   19    0    0    0.2257234305E+00    0.5393319130E+01    0.1151018906E+02    0.1272285366E+02    0.4977199435E+00    0    0
  211    1   19   19    0    0   -0.7232947648E-01    0.4024719000E+00    0.1053568006E+01    0.1138727427E+01    0.1395680606E+00    0    0
  310    1   19   19    0    0   -0.9977751225E-01    0.7079733849E+01    0.1415062618E+02    0.1583099842E+02    0.4977199733E+00    0    0
</event>
<event>
   22 9999    1    0.9119999695E+02    0.7565275169E-02    0.1185000000E+00
   11   -1    0    0    0    0    0.0000000000E+00    0.0000000000E+00    0.8000000000E+02    0.8000000000E+02    0.5109988851E-03    0    0
  -11   -1    0    0    0    0    0.0000000000E+00    0.0000000000E+00   -0.8000000000E+02    0.8000000000E+02    0.5109988851E-03    0    0
  -24    2    1    2    0    0   -0.6511374712E+00    0.5929895639E+00   -0.9786655426E+01    0.7816134644E+02    0.7754122162E+02    0    0
   24    2    1    2    0    0    0.6587836146E+00   -0.6005036235E+00    0.9834174156E+01    0.8178994751E+02    0.8119168091E+02    0    0
   22    1    1    2    0    0   -0.7646168582E-02    0.7514098193E-02   -0.4751931503E-01    0.4871356115E-01    0.0000000000E+00    0    0
   15    2    3    3    0    0   -0.3900822830E+02   -0.4991862774E+00   -0.2747443914E+01    0.3914839935E+02    0.1777029991E+01    0    0
  -16    1    3    3    0    0    0.3835709000E+02    0.1092175841E+01   -0.7039211273E+01    0.3901294327E+02    0.0000000000E+00    0    0
   16    1    4    4    0    0   -0.1853569221E+02    0.3291395950E+02    0.1866115761E+02    0.4213240433E+02    0.0000000000E+00    0    0
  -15    2    4    4    0    0    0.1919447708E+02   -0.3351446152E+02   -0.8826983452E+01    0.3965753937E+02    0.1777029991E+01    0    0
   16    1    6    6    0    0   -0.1858890176E+01   -0.1918259412E+00   -0.4910808429E-01    0.1869406700E+01    0.9406149184E-04    0    0
*****    2    6    6    0    0   -0.3715087128E+02   -0.3073799908E+00   -0.2698443890E+01    0.3728053665E+02    0.1508264542E+01    0    0
  111    1   11   11    0    0   -0.6413908958E+01   -0.3913537040E-01   -0.1368424390E-01    0.6415462971E+01    0.1349641234E+00    0    0
  111    1   11   11    0    0   -0.1872125053E+02   -0.6619331241E-01   -0.1978703618E+01    0.1882612610E+02    0.1349646151E+00    0    0
 -211    1   11   11    0    0   -0.1201571274E+02   -0.2020513862E+00   -0.7060559392E+00    0.1203894424E+02    0.1395681798E+00    0    0
  -16    1    9    9    0    0    0.8205229640E+00   -0.1290490031E+01   -0.3320368230E+00    0.1564886928E+01    0.9344062164E-05    0    0
   24    2    9    9    0    0    0.1837470818E+02   -0.3222528839E+02   -0.8495294571E+01    0.3809421539E+02    0.1702905297E+01    0    0
  211    1   16   16    0    0    0.1110451579E+01   -0.2043856859E+01   -0.6799784303E+00    0.2427406788E+01    0.1395679712E+00    0    0
  211    1   16   16    0    0    0.5628628731E+01   -0.9903759956E+01   -0.2475192785E+01    0.1165812969E+02    0.1395679712E+00    0    0
  211    1   16   16    0    0    0.2765133381E+01   -0.4459228516E+01   -0.1366683006E+01    0.5423834801E+01    0.1395679861E+00    0    0
 -211    1   16   16    0    0    0.5723598003E+01   -0.9718436241E+01   -0.2501211166E+01    0.1155348969E+02    0.1395680159E+00    0    0
 -211    1   16   16    0    0    0.1782860160E+01   -0.3339329243E+01   -0.6752067208E+00    0.3847738743E+01    0.1395679563E+00    0    0
  111    1   16   16    0    0    0.1364036083E+01   -0.2760678291E+01   -0.7970222235E+00    0.3183614016E+01    0.1349640042E+00    0    0
</event>
<event>
   16 9999    1    0.9119999695E+02    0.7565275169E-02    0.1185000000E+00
   11   -1    0    0    0    0    0.0000000000E+00    0.0000000000E+00    0.8000000000E+02    0.8000000000E+02    0.5109988851E-03    0    0
  -11   -1    0    0    0    0    0.0000000000E+00    0.0000000000E+00   -0.8000000000E+02    0.8000000000E+02    0.5109988851E-03    0    0
  -24    2    1    2    0    0    0.1305179501E+02    0.3618878174E+02    0.1724902916E+02    0.7895963287E+02    0.6676165009E+02    0    0
   24    2    1    2    0    0   -0.1305179501E+02   -0.3618878174E+02   -0.1724902916E+02    0.8104036713E+02    0.6921007538E+02    0    0
   15    2    3    3    0    0    0.1966497993E+02    0.1624193954E+02    0.4032619095E+02    0.4774800110E+02    0.1777029991E+01    0    0
  -16    1    3    3    0    0   -0.6613185406E+01    0.1994684219E+02   -0.2307716179E+02    0.3121163559E+02    0.0000000000E+00    0    0
   16    1    4    4    0    0    0.7876801014E+01   -0.4141503906E+02    0.1275446415E+02    0.4404459000E+02    0.0000000000E+00    0    0
  -15    2    4    4    0    0   -0.2092859650E+02    0.5226259708E+01   -0.3000349236E+02    0.3699577332E+02    0.1777029991E+01    0    0
   16    1    5    5    0    0    0.8974427223E+01    0.6395273209E+01    0.1811878395E+02    0.2120684242E+02    0.2990099892E-03    0    0
 -211    1    5    5    0    0    0.1069132805E+02    0.9847306252E+01    0.2220899773E+02    0.2654303932E+02    0.1395676434E+00    0    0
  -16    1    8    8    0    0   -0.6401322782E-01   -0.6203711778E-01   -0.1444555074E+00    0.1697457284E+00    0.2780283685E-03    0    0
   24    2    8    8    0    0   -0.2086540604E+02    0.5288502693E+01   -0.2986021805E+02    0.3682748413E+02    0.1139109492E+01    0    0
  211    1   12   12    0    0   -0.5712498665E+01    0.1399474740E+01   -0.8620839119E+01    0.1043693066E+02    0.1395682395E+00    0    0
  211    1   12   12    0    0   -0.4308516979E+01    0.9665299058E+00   -0.5679588795E+01    0.7195464611E+01    0.1395678520E+00    0    0
 -211    1   12   12    0    0   -0.6304306984E+01    0.1536842942E+01   -0.9119497299E+01    0.1119334126E+02    0.1395680308E+00    0    0
  111    1   12   12    0    0   -0.4540085316E+01    0.1385655403E+01   -0.6440294743E+01    0.8001751900E+01    0.1349639148E+00    0    0
</event>
<event>
   19 9999    1    0.9119999695E+02    0.7565275169E-02    0.1185000000E+00
   11   -1    0    0    0    0    0.0000000000E+00    0.0000000000E+00    0.8000000000E+02    0.8000000000E+02    0.5109988851E-03    0    0
  -11   -1    0    0    0    0    0.0000000000E+00    0.0000000000E+00   -0.8000000000E+02    0.8000000000E+02    0.5109988851E-03    0    0
  -24    2    1    2    0    0    0.2244592667E+01    0.6651405811E+01    0.5805624962E+01    0.8146296692E+02    0.8095202637E+02    0    0
   24    2    1    2    0    0   -0.2244592667E+01   -0.6651405811E+01   -0.5805624962E+01    0.7853703308E+02    0.7800692749E+02    0    0
   15    2    3    3    0    0   -0.1561969280E+02    0.2484758568E+02    0.3298954010E+02    0.4419100571E+02    0.1777029991E+01    0    0
  -16    1    3    3    0    0    0.1786428452E+02   -0.1819618034E+02   -0.2718391609E+02    0.3727196121E+02    0.0000000000E+00    0    0
   16    1    4    4    0    0   -0.3891049576E+02   -0.1130373287E+02   -0.8391967773E+01    0.4137905502E+02    0.0000000000E+00    0    0
  -15    2    4    4    0    0    0.3611005783E+02    0.4310157299E+01    0.2457147360E+01    0.3649259186E+02    0.1777029991E+01    0    0
   22    1    4    4    0    0    0.5558471680E+00    0.3421697617E+00    0.1291955411E+00    0.6653853655E+00    0.0000000000E+00    0    0
   16    1    5    5    0    0   -0.2687462568E+01    0.4378272057E+01    0.6191640854E+01    0.8045379639E+01    0.3955530119E-03    0    0
  -24    2    5    5    0    0   -0.1293284416E+02    0.2047029305E+02    0.2679919815E+02    0.3614736557E+02    0.1464113235E+01    0    0
  221    1   11   11    0    0   -0.6708946705E+01    0.9925149918E+01    0.1332292843E+02    0.1792540550E+02    0.5488000512E+00    0    0
 -211    1   11   11    0    0   -0.5768229485E+01    0.9467759132E+01    0.1219750690E+02    0.1648361588E+02    0.1395680308E+00    0    0
  111    1   11   11    0    0   -0.4556694627E+00    0.1077383876E+01    0.1278765202E+01    0.1738345861E+01    0.1349640638E+00    0    0
  -16    1    8    8    0    0    0.1571057796E+01    0.2324340641E+00   -0.9042320400E-01    0.1590731263E+01    0.2363881504E-03    0    0
   24    2    8    8    0    0    0.3454051590E+02    0.4077903748E+01    0.2547673225E+01    0.3490339661E+02    0.1442056298E+01    0    0
  130    1   16   16    0    0    0.8963444710E+01    0.8959046006E+00    0.6977770925E+00    0.9048790932E+01    0.4977200329E+00    0    0
  211    1   16   16    0    0    0.7374480724E+01    0.1158182144E+01    0.4527959228E+00    0.7479897499E+01    0.1395678222E+00    0    0
  310    1   16   16    0    0    0.1820258904E+02    0.2023817062E+01    0.1397100449E+01    0.1837470818E+02    0.4977199733E+00    0    0
</event>
<event>
   17 9999    1    0.9119999695E+02    0.7565275169E-02    0.1185000000E+00
   11   -1    0    0    0    0    0.0000000000E+00    0.0000000000E+00    0.8000000000E+02    0.8000000000E+02    0.5109988851E-03    0    0
  -11   -1    0    0    0    0    0.0000000000E+00    0.0000000000E+00   -0.8000000000E+02    0.8000000000E+02    0.5109988851E-03    0    0
  -24    2    1    2    0    0    0.1362400800E+00    0.3295309305E+01    0.1880664444E+02    0.8335675812E+02    0.8114051056E+02    0    0
   24    2    1    2    0    0   -0.1362400800E+00   -0.3295309305E+01   -0.1880664444E+02    0.7664324188E+02    0.7422680664E+02    0    0
   15    2    3    3    0    0    0.1197507000E+02    0.3076228714E+02    0.3598482895E+02    0.4886498260E+02    0.1777029991E+01    0    0
  -16    1    3    3    0    0   -0.1183882999E+02   -0.2746697807E+02   -0.1717818451E+02    0.3449177933E+02    0.0000000000E+00    0    0
   16    1    4    4    0    0   -0.2875959396E+02    0.1349524689E+02    0.9318593979E+01    0.3310697937E+02    0.0000000000E+00    0    0
  -15    2    4    4    0    0    0.2862335396E+02   -0.1679055595E+02   -0.2812523842E+02    0.4353625870E+02    0.1777029991E+01    0    0
   16    1    5    5    0    0    0.2808441162E+01    0.6202077866E+01    0.7325139046E+01    0.1000053883E+02    0.2805294353E-03    0    0
  -24    2    5    5    0    0    0.9167099953E+01    0.2456142044E+02    0.2866110802E+02    0.3886636734E+02    0.1355093837E+01    0    0
 -321    1   10   10    0    0    0.3380937576E+01    0.8981431007E+01    0.1032781696E+02    0.1410689068E+02    0.4936670065E+00    0    0
 -211    1   10   10    0    0    0.2313253403E+01    0.5946154594E+01    0.7374043465E+01    0.9752122879E+01    0.1395680159E+00    0    0
  321    1   10   10    0    0    0.3472908735E+01    0.9633833885E+01    0.1095924664E+02    0.1500735283E+02    0.4936670065E+00    0    0
  -16    1    8    8    0    0    0.4572067738E+01   -0.2822740078E+01   -0.3817651033E+01    0.6591367245E+01    0.1726334885E-03    0    0
  213    2    8    8    0    0    0.2405241203E+02   -0.1396847630E+02   -0.2430869293E+02    0.3694660568E+02    0.7087044716E+00    0    0
  211    1   15   15    0    0    0.1373275995E+01   -0.9003059268E+00   -0.1406825781E+01    0.2166812420E+01    0.1395679861E+00    0    0
  111    1   15   15    0    0    0.2267913818E+02   -0.1306817150E+02   -0.2290187073E+02    0.3477979660E+02    0.1349645108E+00    0    0
</event>
<event>
   20 9999    1    0.9119999695E+02    0.7565275169E-02    0.1185000000E+00
   11   -1    0    0    0    0    0.0000000000E+00    0.0000000000E+00    0.8000000000E+02    0.8000000000E+02    0.5109988851E-03    0    0
  -11   -1    0    0    0    0    0.0000000000E+00    0.0000000000E+00   -0.8000000000E+02    0.8000000000E+02    0.5109988851E-03    0    0
  -24    2    1    2    0    0   -0.3431425810E+01    0.5779397488E+01    0.5487690926E+01    0.7949967194E+02    0.7902472687E+02    0    0
   24    2    1    2    0    0    0.3428457737E+01   -0.5781007290E+01   -0.5612997055E+01    0.8037497711E+02    0.7989653778E+02    0    0
   22    1    1    2    0    0    0.2967935754E-02    0.1609919127E-02    0.1253062189E+00    0.1253516972E+00    0.0000000000E+00    0    0
   15    2    3    3    0    0    0.2067966270E+02   -0.2151579475E+02    0.2428426933E+02    0.3851573181E+02    0.1777029991E+01    0    0
  -16    1    3    3    0    0   -0.2411108780E+02    0.2729519272E+02   -0.1879657745E+02    0.4098394012E+02    0.0000000000E+00    0    0
   16    1    4    4    0    0   -0.3019880056E+01    0.2239385033E+02    0.2794142532E+02    0.3593504715E+02    0.0000000000E+00    0    0
  -15    2    4    4    0    0    0.5900593281E+01   -0.2748994255E+02   -0.3305154419E+02    0.4342898178E+02    0.1777029991E+01    0    0
   22    1    4    4    0    0    0.5477444530E+00   -0.6849163771E+00   -0.5028776526E+00    0.1010950208E+01    0.0000000000E+00    0    0
   16    1    6    6    0    0    0.1805775762E+01   -0.1575805187E+01    0.1953875780E+01    0.3092186689E+01    0.3894916154E-03    0    0
  -24    2    6    6    0    0    0.1887470245E+02   -0.1994083786E+02    0.2233135033E+02    0.3542506027E+02    0.1534391999E+01    0    0
  111    1   12   12    0    0    0.5331638813E+01   -0.5821005344E+01    0.6913413525E+01    0.1049399662E+02    0.1349641681E+00    0    0
  111    1   12   12    0    0    0.1630481482E+01   -0.1557550788E+01    0.1490226150E+01    0.2706182480E+01    0.1349638700E+00    0    0
 -321    1   12   12    0    0    0.1191258049E+02   -0.1256228161E+02    0.1392771053E+02    0.2222488022E+02    0.4936669469E+00    0    0
  -16    1    9    9    0    0    0.1306830883E+01   -0.5054759026E+01   -0.5911276817E+01    0.7886797905E+01    0.3860202269E-03    0    0
   24    2    9    9    0    0    0.4593997478E+01   -0.2243627739E+02   -0.2714158630E+02    0.3554391098E+02    0.1487513065E+01    0    0
  321    1   17   17    0    0    0.1431532860E+01   -0.6322408676E+01   -0.7589001656E+01    0.9992937088E+01    0.4936670661E+00    0    0
  211    1   17   17    0    0    0.2258415222E+01   -0.1057658863E+02   -0.1280121803E+02    0.1675873947E+02    0.1395682544E+00    0    0
 -321    1   17   17    0    0    0.9040493965E+00   -0.5537278175E+01   -0.6751362801E+01    0.8792233467E+01    0.4936670661E+00    0    0
</event>
<event>
   23 9999    1    0.9119999695E+02    0.7565275169E-02    0.1185000000E+00
   11   -1    0    0    0    0    0.0000000000E+00    0.0000000000E+00    0.8000000000E+02    0.8000000000E+02    0.5109988851E-03    0    0
  -11   -1    0    0    0    0    0.0000000000E+00    0.0000000000E+00   -0.8000000000E+02    0.8000000000E+02    0.5109988851E-03    0    0
  -24    2    1    2    0    0   -0.8102304459E+01    0.1752273369E+02    0.3017437696E+01    0.8056147766E+02    0.7815595245E+02    0    0
   24    2    1    2    0    0    0.8104114532E+01   -0.1752223587E+02   -0.3040906906E+01    0.7941497803E+02    0.7697263336E+02    0    0
   22    1    1    2    0    0   -0.1810703310E-02   -0.4984414554E-03    0.2346920408E-01    0.2354422770E-01    0.0000000000E+00    0    0
   15    2    3    3    0    0   -0.1798258591E+02    0.3859020233E+02    0.2427777100E+02    0.4904227829E+02    0.1777029991E+01    0    0
  -16    1    3    3    0    0    0.9880281448E+01   -0.2106746864E+02   -0.2126033401E+02    0.3151919937E+02    0.0000000000E+00    0    0
   16    1    4    4    0    0   -0.2209659576E+02   -0.7232200623E+01    0.2694825172E+02    0.3559174728E+02    0.0000000000E+00    0    0
  -15    2    4    4    0    0    0.3020071030E+02   -0.1029003525E+02   -0.2998915863E+02    0.4382322693E+02    0.1777029991E+01    0    0
   16    1    6    6    0    0   -0.6205566883E+01    0.1286198521E+02    0.7641765594E+01    0.1619680023E+02    0.0000000000E+00    0    0
  -24    2    6    6    0    0   -0.1177772617E+02    0.2572973633E+02    0.1663696289E+02    0.3284741211E+02    0.1195700526E+01    0    0
  111    1   11   11    0    0   -0.5770332336E+01    0.1267218018E+02    0.7860230923E+01    0.1599006939E+02    0.1349641234E+00    0    0
  111    1   11   11    0    0   -0.2316197395E+01    0.5563855648E+01    0.3454441309E+01    0.6947851658E+01    0.1349631399E+00    0    0
  111    1   11   11    0    0   -0.1956708789E+01    0.3835648298E+01    0.2757121563E+01    0.5114767075E+01    0.1349640340E+00    0    0
 -211    1   11   11    0    0   -0.1734489441E+01    0.3658055305E+01    0.2565170050E+01    0.4794726372E+01    0.1395679712E+00    0    0
  -16    1    9    9    0    0    0.2649052143E+01   -0.9110805988E+00   -0.2330984831E+01    0.3644315481E+01    0.6103515625E-04    0    0
   24    2    9    9    0    0    0.2755284882E+02   -0.9379360199E+01   -0.2765935707E+02    0.4018064117E+02    0.1520488739E+01    0    0
  211    1   17   17    0    0    0.3437176228E+01   -0.1040635228E+01   -0.3510545969E+01    0.5023993969E+01    0.1395680308E+00    0    0
  211    1   17   17    0    0    0.5685876369E+01   -0.1800282836E+01   -0.5464245796E+01    0.8089973450E+01    0.1395680308E+00    0    0
 -211    1   17   17    0    0    0.3894943237E+01   -0.1470353603E+01   -0.3840397120E+01    0.5665743828E+01    0.1395680159E+00    0    0
  111    1   17   17    0    0    0.6136178493E+01   -0.2165294409E+01   -0.6038425446E+01    0.8878174782E+01    0.1349640340E+00    0    0
  111    1   17   17    0    0    0.2689553976E+01   -0.8849685192E+00   -0.3120850563E+01    0.4216016293E+01    0.1349639595E+00    0    0
  111    1   17   17    0    0    0.5709120274E+01   -0.2017825365E+01   -0.5684890747E+01    0.8306736946E+01    0.1349640191E+00    0    0
</event>
<event>
   19 9999    1    0.9119999695E+02    0.7565275169E-02    0.1185000000E+00
   11   -1    0    0    0    0    0.0000000000E+00    0.0000000000E+00    0.8000000000E+02    0.8000000000E+02    0.5109988851E-03    0    0
  -11   -1    0    0    0    0    0.0000000000E+00    0.0000000000E+00   -0.8000000000E+02    0.8000000000E+02    0.5109988851E-03    0    0
  -24    2    1    2    0    0    0.1226227093E+02   -0.5533277035E+01    0.6957983971E+00    0.7849129486E+02    0.7732669830E+02    0    0
   24    2    1    2    0    0   -0.1226227093E+02    0.5533277512E+01   -0.6949491501E+00    0.8150785828E+02    0.8038698578E+02    0    0
   22    1    1    2    0    0    0.2403287702E-07   -0.1861305066E-06   -0.8492565248E-03    0.8492565248E-03    0.0000000000E+00    0    0
   15    2    3    3    0    0    0.2615737915E+02    0.2446848488E+02    0.1912074852E+02    0.4064081573E+02    0.1777029991E+01    0    0
  -16    1    3    3    0    0   -0.1389510822E+02   -0.3000176239E+02   -0.1842494965E+02    0.3785047531E+02    0.0000000000E+00    0    0
   16    1    4    4    0    0    0.2631142426E+02    0.1899752998E+02    0.1736051750E+02    0.3680468369E+02    0.0000000000E+00    0    0
  -15    2    4    4    0    0   -0.3857369614E+02   -0.1346425152E+02   -0.1805546570E+02    0.4470317459E+02    0.1777029991E+01    0    0
   16    1    6    6    0    0    0.1260375786E+02    0.1160727787E+02    0.9396353722E+01    0.1954162407E+02    0.3558930475E-03    0    0
  -24    2    6    6    0    0    0.1355465031E+02    0.1286217022E+02    0.9725147247E+01    0.2110079384E+02    0.1225160241E+01    0    0
 -211    1   11   11    0    0    0.2574189425E+01    0.2619709253E+01    0.1934548616E+01    0.4153466702E+01    0.1395678669E+00    0    0
 -211    1   11   11    0    0    0.1200081706E+01    0.1451476812E+01    0.9857096076E+00    0.2130277872E+01    0.1395680606E+00    0    0
  211    1   11   11    0    0    0.2963471651E+01    0.2724259853E+01    0.2183189392E+01    0.4581435680E+01    0.1395679861E+00    0    0
  111    1   11   11    0    0    0.3268423796E+01    0.2886186838E+01    0.2073475838E+01    0.4830132961E+01    0.1349639744E+00    0    0
  111    1   11   11    0    0    0.3548483610E+01    0.3180536985E+01    0.2548223257E+01    0.5405479431E+01    0.1349641681E+00    0    0
  -16    1    9    9    0    0   -0.4783402383E+00   -0.9880068898E-01   -0.3871371746E+00    0.6232544780E+00    0.1220703125E-03    0    0
  -13    1    9    9    0    0   -0.3576816940E+02   -0.1229888248E+02   -0.1650441170E+02    0.4126779938E+02    0.1056590676E+00    0    0
   14    1    9    9    0    0   -0.2328703642E+01   -0.1067099214E+01   -0.1164628506E+01    0.2813879967E+01    0.1705984505E-04    0    0
</event>
<event>
   16 9999    1    0.9119999695E+02    0.7565275169E-02    0.1185000000E+00
   11   -1    0    0    0    0    0.0000000000E+00    0.0000000000E+00    0.8000000000E+02    0.8000000000E+02    0.5109988851E-03    0    0
  -11   -1    0    0    0    0    0.0000000000E+00    0.0000000000E+00   -0.8000000000E+02    0.8000000000E+02    0.5109988851E-03    0    0
  -24    2    1    2    0    0    0.7108091354E+01    0.1058440781E+02   -0.2510700703E+01    0.8031816864E+02    0.7926000977E+02    0    0
   24    2    1    2    0    0   -0.7112990379E+01   -0.1057058907E+02    0.2492980242E+01    0.7965883636E+02    0.7859378052E+02    0    0
   22    1    1    2    0    0    0.4898668732E-02   -0.1381906774E-01    0.1772054471E-01    0.2299959399E-01    0.0000000000E+00    0    0
   15    2    3    3    0    0   -0.1496962929E+02   -0.2002178764E+02    0.2360217476E+02    0.3442647552E+02    0.1777029991E+01    0    0
  -16    1    3    3    0    0    0.2207772064E+02    0.3060619545E+02   -0.2611287498E+02    0.4589168930E+02    0.0000000000E+00    0    0
   16    1    4    4    0    0    0.1039109230E+02   -0.4178418350E+02   -0.4008571148E+01    0.4324304962E+02    0.0000000000E+00    0    0
  -15    2    4    4    0    0   -0.1750408173E+02    0.3121359444E+02    0.6501551151E+01    0.3641578293E+02    0.1777029991E+01    0    0
   16    1    6    6    0    0   -0.4141523361E+01   -0.4801478863E+01    0.6798495770E+01    0.9296556473E+01    0.0000000000E+00    0    0
 -321    1    6    6    0    0   -0.1082869625E+02   -0.1522109795E+02    0.1680460930E+02    0.2513127708E+02    0.4936671257E+00    0    0
  -16    1    9    9    0    0   -0.2100275278E+01    0.3897312403E+01    0.8456841111E+00    0.4507258892E+01    0.6815402885E-03    0    0
   24    2    9    9    0    0   -0.1540449524E+02    0.2731750870E+02    0.5656122684E+01    0.3190995789E+02    0.1645870090E+01    0    0
  130    1   13   13    0    0   -0.2581610441E+01    0.4953717709E+01    0.1145199656E+01    0.5723917961E+01    0.4977200627E+00    0    0
  211    1   13   13    0    0   -0.4066482544E+01    0.7120512009E+01    0.1722352028E+01    0.8379973412E+01    0.1395677328E+00    0    0
  310    1   13   13    0    0   -0.8756403923E+01    0.1524328327E+02    0.2788572073E+01    0.1780607033E+02    0.4977200329E+00    0    0
</event>
<event>
   18 9999    1    0.9119999695E+02    0.7565275169E-02    0.1185000000E+00
   11   -1    0    0    0    0    0.0000000000E+00    0.0000000000E+00    0.8000000000E+02    0.8000000000E+02    0.5109988851E-03    0    0
  -11   -1    0    0    0    0    0.0000000000E+00    0.0000000000E+00   -0.8000000000E+02    0.8000000000E+02    0.5109988851E-03    0    0
  -24    2    1    2    0    0   -0.9124748230E+01    0.1867058563E+02   -0.2942023277E+02    0.8182021332E+02    0.7346527100E+02    0    0
   24    2    1    2    0    0    0.9128003120E+01   -0.1865806198E+02    0.2885409355E+02    0.7761349487E+02    0.6899168396E+02    0    0
   22    1    1    2    0    0   -0.3254570998E-02   -0.1252346765E-01    0.5661388636E+00    0.5662866831E+00    0.0000000000E+00    0    0
   15    2    3    3    0    0    0.2288682556E+02    0.3371541977E+02   -0.1288378143E+02    0.4277482986E+02    0.1777029991E+01    0    0
  -16    1    3    3    0    0   -0.3201157379E+02   -0.1504483509E+02   -0.1653645134E+02    0.3904538727E+02    0.0000000000E+00    0    0
   16    1    4    4    0    0   -0.2694896698E+02    0.3783412457E+01    0.2099072075E+02    0.3436817551E+02    0.0000000000E+00    0    0
  -15    2    4    4    0    0    0.3607696915E+02   -0.2244147491E+02    0.7863372803E+01    0.4324532318E+02    0.1777029991E+01    0    0
   16    1    6    6    0    0    0.1842076182E+01    0.2456003904E+01   -0.5147745013E+00    0.3112907410E+01    0.3229676804E-03    0    0
   11    1    6    6    0    0    0.5528219700E+01    0.8332621574E+01   -0.3216929197E+01    0.1050440025E+02    0.5124773015E-03    0    0
  -12    1    6    6    0    0    0.1551742935E+02    0.2292812157E+02   -0.9152585030E+01    0.2915920448E+02    0.0000000000E+00    0    0
  -16    1    9    9    0    0    0.2496506214E+01   -0.1716139078E+01    0.8420635462E+00    0.3144319773E+01    0.0000000000E+00    0    0
   24    2    9    9    0    0    0.3358188629E+02   -0.2072621918E+02    0.7021618843E+01    0.4010270691E+02    0.1266815424E+01    0    0
  111    1   14   14    0    0    0.6275891781E+01   -0.4188307285E+01    0.1215496898E+01    0.7643584728E+01    0.1349641234E+00    0    0
  111    1   14   14    0    0    0.3854605913E+01   -0.2167160273E+01    0.8050850630E+00    0.4496770859E+01    0.1349638999E+00    0    0
  111    1   14   14    0    0    0.5274312496E+01   -0.3487912416E+01    0.1084578633E+01    0.6417042255E+01    0.1349639744E+00    0    0
  211    1   14   14    0    0    0.1817707253E+02   -0.1088283825E+02    0.3916457891E+01    0.2154530716E+02    0.1395678520E+00    0    0
</event>
<event>
   16 9999    1    0.9119999695E+02    0.7565275169E-02    0.1185000000E+00
   11   -1    0    0    0    0    0.0000000000E+00    0.0000000000E+00    0.8000000000E+02    0.8000000000E+02    0.5109988851E-03    0    0
  -11   -1    0    0    0    0    0.0000000000E+00    0.0000000000E+00   -0.8000000000E+02    0.8000000000E+02    0.5109988851E-03    0    0
  -24    2    1    2    0    0    0.1143440723E+02   -0.9688194275E+01    0.1018359947E+02    0.7329542542E+02    0.7102046967E+02    0    0
   24    2    1    2    0    0   -0.1142966461E+02    0.9686404228E+01   -0.3378113270E+01    0.7989908600E+02    0.7840911102E+02    0    0
   22    1    1    2    0    0   -0.4742872901E-02    0.1790619572E-02   -0.6805486679E+01    0.6805488586E+01    0.0000000000E+00    0    0
   15    2    3    3    0    0   -0.2255957603E+02    0.1644937134E+02    0.1184941101E+02    0.3038227654E+02    0.1777029991E+01    0    0
  -16    1    3    3    0    0    0.3399398422E+02   -0.2613756561E+02   -0.1665811419E+01    0.4291314697E+02    0.0000000000E+00    0    0
   16    1    4    4    0    0   -0.3920758057E+02   -0.1853254557E+01    0.1776991463E+02    0.4308641052E+02    0.0000000000E+00    0    0
  -15    2    4    4    0    0    0.2777791595E+02    0.1153965855E+02   -0.2114802742E+02    0.3681267929E+02    0.1777029991E+01    0    0
   16    1    6    6    0    0   -0.1854844284E+02    0.1278636932E+02    0.9163318634E+01    0.2432082176E+02    0.1220703125E-03    0    0
 -211    1    6    6    0    0   -0.4012023449E+01    0.3663650751E+01    0.2686560154E+01    0.6062652111E+01    0.1395681202E+00    0    0
  -16    1    9    9    0    0    0.6048156738E+01    0.2290968180E+01   -0.4690007210E+01    0.7989048958E+01    0.4911339493E-03    0    0
   24    2    9    9    0    0    0.2173085213E+02    0.9249144554E+01   -0.1645885086E+02    0.2882507515E+02    0.1488167644E+01    0    0
  221    1   13   13    0    0    0.1568847752E+02    0.6409950256E+01   -0.1128744602E+02    0.2036966896E+02    0.5488001704E+00    0    0
  211    1   13   13    0    0    0.3259948015E+01    0.1532132983E+01   -0.2586722136E+01    0.4436812401E+01    0.1395680159E+00    0    0
  111    1   13   13    0    0    0.2782426596E+01    0.1307061195E+01   -0.2584683180E+01    0.4018595219E+01    0.1349638999E+00    0    0
</event>
<event>
   21 9999    1    0.9119999695E+02    0.7565275169E-02    0.1185000000E+00
   11   -1    0    0    0    0    0.0000000000E+00    0.0000000000E+00    0.8000000000E+02    0.8000000000E+02    0.5109988851E-03    0    0
  -11   -1    0    0    0    0    0.0000000000E+00    0.0000000000E+00   -0.8000000000E+02    0.8000000000E+02    0.5109988851E-03    0    0
  -24    2    1    2    0    0    0.4658605099E+01    0.6712711811E+01   -0.7245805740E+01    0.7793240356E+02    0.7716342926E+02    0    0
   24    2    1    2    0    0   -0.4658605099E+01   -0.6712711811E+01    0.7245805740E+01    0.8206759644E+02    0.8133773041E+02    0    0
   15    2    3    3    0    0   -0.7683348656E+01    0.4036158752E+02    0.1072774291E+01    0.4113879395E+02    0.1777029991E+01    0    0
  -16    1    3    3    0    0    0.1234195328E+02   -0.3364887619E+02   -0.8318579674E+01    0.3679360580E+02    0.0000000000E+00    0    0
   16    1    4    4    0    0   -0.1819409943E+02    0.2617170525E+02    0.2662347412E+02    0.4153062439E+02    0.0000000000E+00    0    0
  -15    2    4    4    0    0    0.1353549385E+02   -0.3288441849E+02   -0.1937766838E+02    0.4053697586E+02    0.1777029991E+01    0    0
   16    1    5    5    0    0   -0.1014042854E+01    0.5547674179E+01    0.4601573050E+00    0.5658331871E+01    0.1930101134E-03    0    0
  -24    2    5    5    0    0   -0.6669608116E+01    0.3481550217E+02    0.6126592159E+00    0.3548208237E+02    0.1414153218E+01    0    0
 -321    1   10   10    0    0   -0.4890356064E+01    0.2624216652E+02    0.8905586600E+00    0.2671336174E+02    0.4936669469E+00    0    0
 -211    1   10   10    0    0   -0.6615307927E+00    0.2932785988E+01   -0.1986075491E+00    0.3016252756E+01    0.1395682245E+00    0    0
  211    1   10   10    0    0   -0.1117721319E+01    0.5640551567E+01   -0.7929169387E-01    0.5752468109E+01    0.1395679712E+00    0    0
  -16    1    8    8    0    0    0.2103027344E+01   -0.5972785950E+01   -0.3491279602E+01    0.7230901241E+01    0.2642899744E-04    0    0
   24    2    8    8    0    0    0.1143299866E+02   -0.2691292572E+02   -0.1588715076E+02    0.3330767059E+02    0.1407211185E+01    0    0
  211    1   15   15    0    0    0.1619190335E+01   -0.4142122269E+01   -0.2440715551E+01    0.5074990273E+01    0.1395679861E+00    0    0
  211    1   15   15    0    0    0.8593639135E+00   -0.2188439369E+01   -0.1263224244E+01    0.2672636747E+01    0.1395679861E+00    0    0
 -211    1   15   15    0    0    0.3680317402E+01   -0.8680732727E+01   -0.4756337643E+01    0.1056134892E+02    0.1395680159E+00    0    0
  111    1   15   15    0    0    0.1614422083E+01   -0.3894865990E+01   -0.2311612368E+01    0.4810208797E+01    0.1349639893E+00    0    0
  111    1   15   15    0    0    0.2289276361E+01   -0.5277022839E+01   -0.3366101265E+01    0.6666079044E+01    0.1349639744E+00    0    0
  111    1   15   15    0    0    0.1370428681E+01   -0.2729742289E+01   -0.1749160051E+01    0.3522405863E+01    0.1349640191E+00    0    0
</event>
<event>
   15 9999    1    0.9119999695E+02    0.7565275169E-02    0.1185000000E+00
   11   -1    0    0    0    0    0.0000000000E+00    0.0000000000E+00    0.8000000000E+02    0.8000000000E+02    0.5109988851E-03    0    0
  -11   -1    0    0    0    0    0.0000000000E+00    0.0000000000E+00   -0.8000000000E+02    0.8000000000E+02    0.5109988851E-03    0    0
  -24    2    1    2    0    0    0.1334755707E+02    0.3148479223E+01    0.1700351334E+02    0.8055531311E+02    0.7753688812E+02    0    0
   24    2    1    2    0    0   -0.1334755707E+02   -0.3148479223E+01   -0.1700351334E+02    0.7944468689E+02    0.7638238525E+02    0    0
   15    2    3    3    0    0   -0.2802764320E+02    0.1724342346E+02    0.1647078896E+02    0.3684194946E+02    0.1777029991E+01    0    0
  -16    1    3    3    0    0    0.4137520218E+02   -0.1409494400E+02    0.5327247977E+00    0.4371336746E+02    0.0000000000E+00    0    0
   16    1    4    4    0    0   -0.4373120499E+02    0.9052672386E+01   -0.7317572594E+01    0.4525390625E+02    0.0000000000E+00    0    0
  -15    2    4    4    0    0    0.3038364601E+02   -0.1220115185E+02   -0.9685941696E+01    0.3419078064E+02    0.1777029991E+01    0    0
   16    1    5    5    0    0   -0.7593591213E+01    0.5033047199E+01    0.4785531521E+01    0.1029055405E+02    0.2114319796E-03    0    0
  -24    2    5    5    0    0   -0.2043515587E+02    0.1221105480E+02    0.1168590641E+02    0.2655284500E+02    0.1337057590E+01    0    0
 -321    1   10   10    0    0   -0.9136650085E+01    0.5580099106E+01    0.5377532005E+01    0.1199072266E+02    0.4936669469E+00    0    0
  111    1   10   10    0    0   -0.6573522091E+00    0.4200339913E+00    0.3217087090E+00    0.8545480371E+00    0.1349640787E+00    0    0
  130    1   10   10    0    0   -0.1064115429E+02    0.6210922241E+01    0.5986665726E+01    0.1370757484E+02    0.4977200627E+00    0    0
  -16    1    8    8    0    0    0.2193618202E+02   -0.9230253220E+01   -0.6325225830E+01    0.2462523270E+02    0.1726334885E-03    0    0
  211    1    8    8    0    0    0.8448662758E+01   -0.2971379280E+01   -0.3361097336E+01    0.9566893578E+01    0.1395680606E+00    0    0
</event>
<event>
   18 9999    1    0.9119999695E+02    0.7565275169E-02    0.1185000000E+00
   11   -1    0    0    0    0    0.0000000000E+00    0.0000000000E+00    0.8000000000E+02    0.8000000000E+02    0.5109988851E-03    0    0
  -11   -1    0    0    0    0    0.0000000000E+00    0.0000000000E+00   -0.8000000000E+02    0.8000000000E+02    0.5109988851E-03    0    0
  -24    2    1    2    0    0   -0.1140270042E+02   -0.2874987221E+02    0.1999110031E+02    0.7087683868E+02    0.6055828476E+02    0    0
   24    2    1    2    0    0    0.1140270042E+02    0.2874987221E+02   -0.1999110031E+02    0.8912316132E+02    0.8115859222E+02    0    0
   15    2    3    3    0    0   -0.3596451569E+02   -0.1617704201E+02    0.5963847637E+01    0.3992328262E+02    0.1777029991E+01    0    0
  -16    1    3    3    0    0    0.2456181717E+02   -0.1257283115E+02    0.1402725220E+02    0.3095355797E+02    0.0000000000E+00    0    0
   16    1    4    4    0    0    0.6790122032E+01    0.3734192848E+01    0.3108461952E+02    0.3203597260E+02    0.0000000000E+00    0    0
  -15    2    4    4    0    0    0.4612578869E+01    0.2501568031E+02   -0.5107571793E+02    0.5708718872E+02    0.1777029991E+01    0    0
   16    1    5    5    0    0   -0.6876698971E+01   -0.3480427980E+01    0.1077696204E+01    0.7782274723E+01    0.2544148592E-03    0    0
  -24    2    5    5    0    0   -0.2908923531E+02   -0.1269725037E+02    0.4886386395E+01    0.3214258194E+02    0.1365631580E+01    0    0
  111    1   10   10    0    0   -0.1235744858E+02   -0.5694752216E+01    0.2037090540E+01    0.1375880432E+02    0.1349640787E+00    0    0
  111    1   10   10    0    0   -0.9283240318E+01   -0.3826848745E+01    0.1316010952E+01    0.1012785339E+02    0.1349640787E+00    0    0
 -321    1   10   10    0    0   -0.7448545933E+01   -0.3175649643E+01    0.1533284664E+01    0.8255922318E+01    0.4936669767E+00    0    0
  -16    1    8    8    0    0    0.2183022261E+01    0.1142737675E+02   -0.2311140823E+02    0.2587446022E+02    0.5316543975E-03    0    0
   24    2    8    8    0    0    0.2429737806E+01    0.1358928680E+02   -0.2796632004E+02    0.3121497154E+02    0.1298895955E+01    0    0
  211    1   15   15    0    0    0.1213853002E+01    0.7760169506E+01   -0.1537396145E+02    0.1726475716E+02    0.1395682245E+00    0    0
  111    1   15   15    0    0    0.7378339767E+00    0.2075484991E+01   -0.5081489086E+01    0.5540016651E+01    0.1349641234E+00    0    0
   22    1   15   15    0    0    0.4780508280E+00    0.3753631592E+01   -0.7510868073E+01    0.8410197258E+01    0.1431401324E-03    0    0
</event>
<event>
   18 9999    1    0.9119999695E+02    0.7565275169E-02    0.1185000000E+00
   11   -1    0    0    0    0    0.0000000000E+00    0.0000000000E+00    0.8000000000E+02    0.8000000000E+02    0.5109988851E-03    0    0
  -11   -1    0    0    0    0    0.0000000000E+00    0.0000000000E+00   -0.8000000000E+02    0.8000000000E+02    0.5109988851E-03    0    0
  -24    2    1    2    0    0   -0.4221760750E+01   -0.5576392174E+01    0.4660984516E+01    0.7993020630E+02    0.7948706818E+02    0    0
   24    2    1    2    0    0    0.4221747875E+01    0.5576344490E+01   -0.4703410149E+01    0.8002532959E+02    0.7958023071E+02    0    0
   22    1    1    2    0    0    0.9674471949E-04    0.1049539878E-04    0.4344184697E-01    0.4344195500E-01    0.0000000000E+00    0    0
   22    1    1    2    0    0   -0.8401921514E-04    0.3709999510E-04   -0.1016061753E-02    0.1020204392E-02    0.0000000000E+00    0    0
   15    2    3    3    0    0   -0.3922049332E+02   -0.4756958961E+01    0.1667250061E+02    0.4291859436E+02    0.1777029991E+01    0    0
  -16    1    3    3    0    0    0.3499873352E+02   -0.8194335103E+00   -0.1201151657E+02    0.3701160812E+02    0.0000000000E+00    0    0
   16    1    4    4    0    0   -0.3185126305E+02   -0.1802031136E+02    0.2796215117E+00    0.3659662247E+02    0.0000000000E+00    0    0
  -15    2    4    4    0    0    0.3607301331E+02    0.2359665680E+02   -0.4983031750E+01    0.4342871094E+02    0.1777029991E+01    0    0
   16    1    7    7    0    0   -0.9745072365E+01   -0.7796009183E+00    0.4137856483E+01    0.1061583996E+02    0.1813335984E-03    0    0
   11    1    7    7    0    0   -0.2506068802E+02   -0.3246107817E+01    0.1015145683E+02    0.2723283577E+02    0.4727763007E-03    0    0
  -12    1    7    7    0    0   -0.4416278362E+01   -0.7314374447E+00    0.2383844614E+01    0.5071609974E+01    0.2114319796E-03    0    0
  -16    1   10   10    0    0    0.6048569202E+01    0.3999280691E+01   -0.5100488067E+00    0.7269083977E+01    0.2729575208E-03    0    0
   24    2   10   10    0    0    0.3002586365E+02    0.1959830666E+02   -0.4473179340E+01    0.3616133881E+02    0.1409554839E+01    0    0
  321    1   15   15    0    0    0.8499740601E+01    0.5286932468E+01   -0.1308411360E+01    0.1010707092E+02    0.4936669767E+00    0    0
  111    1   15   15    0    0    0.1087239742E+02    0.7238854885E+01   -0.1743340373E+01    0.1317829609E+02    0.1349633038E+00    0    0
  130    1   15   15    0    0    0.1065372562E+02    0.7072518349E+01   -0.1421427369E+01    0.1287596798E+02    0.4977200329E+00    0    0
</event>
<event>
   25 9999    1    0.9119999695E+02    0.7565275169E-02    0.1185000000E+00
   11   -1    0    0    0    0    0.0000000000E+00    0.0000000000E+00    0.8000000000E+02    0.8000000000E+02    0.5109988851E-03    0    0
  -11   -1    0    0    0    0    0.0000000000E+00    0.0000000000E+00   -0.8000000000E+02    0.8000000000E+02    0.5109988851E-03    0    0
  -24    2    1    2    0    0    0.7791228890E+00    0.3771146536E+01    0.1507900715E+01    0.8070478821E+02    0.8059876251E+02    0    0
   24    2    1    2    0    0   -0.7790762186E+00   -0.3771152735E+01   -0.1629719615E+01    0.7917297363E+02    0.7906247711E+02    0    0
   22    1    1    2    0    0   -0.4684841042E-04    0.1361255272E-04    0.6519676000E-01    0.6519677490E-01    0.0000000000E+00    0    0
   22    1    1    2    0    0    0.2052354375E-06   -0.7455218565E-05    0.5683331564E-01    0.5683331564E-01    0.0000000000E+00    0    0
   22    1    1    2    0    0    0.1484128376E-09    0.3819752958E-08   -0.2111354697E-03    0.2111354697E-03    0.0000000000E+00    0    0
   15    2    3    3    0    0   -0.2835377693E+02   -0.2085959053E+02   -0.1602728844E+02    0.3871809769E+02    0.1777029991E+01    0    0
  -16    1    3    3    0    0    0.2913290024E+02    0.2463073730E+02    0.1753519058E+02    0.4198668671E+02    0.0000000000E+00    0    0
   16    1    4    4    0    0   -0.1460983753E+02    0.4495574474E+01    0.3550416565E+02    0.3865492630E+02    0.0000000000E+00    0    0
  -15    2    4    4    0    0    0.1383076096E+02   -0.8266727448E+01   -0.3713388824E+02    0.4051804733E+02    0.1777029991E+01    0    0
   16    1    8    8    0    0   -0.2948150396E+01   -0.1914726138E+01   -0.1582915068E+01    0.3855306387E+01    0.3953506239E-03    0    0
  -24    2    8    8    0    0   -0.2540674210E+02   -0.1894568443E+02   -0.1444500446E+02    0.3486431503E+02    0.1555854917E+01    0    0
 -211    1   13   13    0    0   -0.9642285347E+01   -0.7281881332E+01   -0.5623600960E+01    0.1332831001E+02    0.1395680308E+00    0    0
 -211    1   13   13    0    0   -0.2384457827E+01   -0.1953474283E+01   -0.1144548416E+01    0.3291074514E+01    0.1395679563E+00    0    0
  211    1   13   13    0    0   -0.2279853821E+01   -0.1488528013E+01   -0.1461058497E+01    0.3093157053E+01    0.1395679563E+00    0    0
  111    1   13   13    0    0   -0.3993884563E+01   -0.3014068365E+01   -0.2359105825E+01    0.5533472538E+01    0.1349640042E+00    0    0
  111    1   13   13    0    0   -0.7106258392E+01   -0.5207731247E+01   -0.3856689692E+01    0.9618297577E+01    0.1349641532E+00    0    0
  -16    1   11   11    0    0    0.4673984274E-01   -0.9856465459E-01   -0.4323797226E+00    0.4459280372E+00    0.9155273438E-04    0    0
   24    2   11   11    0    0    0.1378456497E+02   -0.8168487549E+01   -0.3670296860E+02    0.4007371140E+02    0.1433932424E+01    0    0
  211    1   20   20    0    0    0.5229380131E+01   -0.3330998898E+01   -0.1336138630E+02    0.1473051548E+02    0.1395678520E+00    0    0
  211    1   20   20    0    0    0.2429254055E+01   -0.1364575505E+01   -0.6223276615E+01    0.6819970131E+01    0.1395679712E+00    0    0
  211    1   20   20    0    0    0.9907466173E+00   -0.6474152207E+00   -0.2674654245E+01    0.2928135872E+01    0.1395679861E+00    0    0
 -211    1   20   20    0    0    0.2606198072E+01   -0.1522265792E+01   -0.7915920734E+01    0.8472947121E+01    0.1395679563E+00    0    0
 -211    1   20   20    0    0    0.2528986216E+01   -0.1303232670E+01   -0.6527730465E+01    0.7122143745E+01    0.1395679861E+00    0    0
</event>
<event>
   21 9999    1    0.9119999695E+02    0.7565275169E-02    0.1185000000E+00
   11   -1    0    0    0    0    0.0000000000E+00    0.0000000000E+00    0.8000000000E+02    0.8000000000E+02    0.5109988851E-03    0    0
  -11   -1    0    0    0    0    0.0000000000E+00    0.0000000000E+00   -0.8000000000E+02    0.8000000000E+02    0.5109988851E-03    0    0
  -24    2    1    2    0    0    0.1584908009E+01   -0.1573509693E+01    0.2891765976E+02    0.6980302429E+02    0.6349206924E+02    0    0
   24    2    1    2    0    0   -0.1569920301E+01    0.1569372654E+01   -0.3546311188E+02    0.8365150452E+02    0.7572988129E+02    0    0
   22    1    1    2    0    0   -0.1498769410E-01    0.4136941396E-02    0.6545452118E+01    0.6545470715E+01    0.0000000000E+00    0    0
   15    2    3    3    0    0   -0.6833764076E+01   -0.1298887920E+02    0.4558198929E+02    0.4791959000E+02    0.1777029991E+01    0    0
  -16    1    3    3    0    0    0.8418672562E+01    0.1141536999E+02   -0.1666433144E+02    0.2188343239E+02    0.0000000000E+00    0    0
   16    1    4    4    0    0   -0.2083371353E+02   -0.3123756790E+02   -0.1516923714E+02    0.4049610901E+02    0.0000000000E+00    0    0
  -15    2    4    4    0    0    0.1926379204E+02    0.3280694199E+02   -0.2029387474E+02    0.4315539551E+02    0.1777029991E+01    0    0
   16    1    6    6    0    0   -0.1322181702E+01   -0.3438557625E+01    0.1149762535E+02    0.1207341003E+02    0.1699146815E-03    0    0
  -24    2    6    6    0    0   -0.5511851788E+01   -0.9550833702E+01    0.3408615875E+02    0.3584806824E+02    0.1272240996E+01    0    0
 -211    1   11   11    0    0   -0.7835025191E+00   -0.1490514278E+01    0.5353994370E+01    0.5614289284E+01    0.1395675838E+00    0    0
 -211    1   11   11    0    0   -0.4763274193E+00   -0.7491912842E+00    0.2282401085E+01    0.2452959299E+01    0.1395680159E+00    0    0
  211    1   11   11    0    0   -0.2817653656E+01   -0.5287001610E+01    0.1837328339E+02    0.1932585144E+02    0.1395679563E+00    0    0
  111    1   11   11    0    0   -0.6430640221E+00   -0.1053745151E+01    0.3959108114E+01    0.4149296761E+01    0.1349640191E+00    0    0
  111    1   11   11    0    0   -0.7913047671E+00   -0.9703820348E+00    0.4117376804E+01    0.4305672169E+01    0.1349640191E+00    0    0
  -16    1    9    9    0    0    0.3209928274E+01    0.4912650108E+01   -0.2984861374E+01    0.6583856583E+01    0.5214845878E-03    0    0
   24    2    9    9    0    0    0.1605462265E+02    0.2789558029E+02   -0.1730981064E+02    0.3657323837E+02    0.1434498072E+01    0    0
  221    1   18   18    0    0    0.8475645065E+01    0.1475743484E+02   -0.8812595367E+01    0.1917241478E+02    0.5487999320E+00    0    0
  211    1   18   18    0    0    0.5479921818E+01    0.1001953506E+02   -0.6258469582E+01    0.1302338505E+02    0.1395679414E+00    0    0
  111    1   18   18    0    0    0.2099055767E+01    0.3118612528E+01   -0.2238747358E+01    0.4377440453E+01    0.1349639595E+00    0    0
</event>
<event>
   17 9999    1    0.9119999695E+02    0.7565275169E-02    0.1185000000E+00
   11   -1    0    0    0    0    0.0000000000E+00    0.0000000000E+00    0.8000000000E+02    0.8000000000E+02    0.5109988851E-03    0    0
  -11   -1    0    0    0    0    0.0000000000E+00    0.0000000000E+00   -0.8000000000E+02    0.8000000000E+02    0.5109988851E-03    0    0
  -24    2    1    2    0    0    0.7130044103E+00    0.1030694580E+02   -0.4211596772E-01    0.8390606689E+02    0.8326754761E+02    0    0
   24    2    1    2    0    0   -0.7128921747E+00   -0.1030684376E+02   -0.6136680394E-01    0.7599044800E+02    0.7528482819E+02    0    0
   22    1    1    2    0    0   -0.1122075191E-03   -0.1015062444E-03    0.1034827754E+00    0.1034828797E+00    0.0000000000E+00    0    0
   15    2    3    3    0    0    0.1120628738E+02    0.4177425003E+02    0.1713006783E+02    0.4655390549E+02    0.1777029991E+01    0    0
  -16    1    3    3    0    0   -0.1049328327E+02   -0.3146730423E+02   -0.1717218399E+02    0.3735216522E+02    0.0000000000E+00    0    0
   16    1    4    4    0    0    0.2398529243E+02    0.1024486637E+02    0.2428601265E+02    0.3563792801E+02    0.0000000000E+00    0    0
  -15    2    4    4    0    0   -0.2469818497E+02   -0.2055171013E+02   -0.2434737968E+02    0.4035251999E+02    0.1777029991E+01    0    0
   16    1    6    6    0    0    0.2266683131E+00    0.9142188430E+00    0.6002815366E+00    0.1116921067E+01    0.3762459673E-03    0    0
*****    2    6    6    0    0    0.1098005962E+02    0.4086167526E+02    0.1653046036E+02    0.4543881226E+02    0.1091556668E+01    0    0
  111    1   11   11    0    0    0.3812216520E+01    0.1365932560E+02    0.5254648209E+01    0.1512414360E+02    0.1349640340E+00    0    0
  111    1   11   11    0    0    0.2038152218E+01    0.8337792397E+01    0.3708632231E+01    0.9351203918E+01    0.1349640340E+00    0    0
 -211    1   11   11    0    0    0.5129691601E+01    0.1886455917E+02    0.7567181587E+01    0.2096346855E+02    0.1395678669E+00    0    0
  -16    1    9    9    0    0   -0.1036323261E+02   -0.8732387543E+01   -0.9581895828E+01    0.1659710503E+02    0.2441406250E-03    0    0
  -13    1    9    9    0    0   -0.1315255928E+02   -0.1050552750E+02   -0.1356333542E+02    0.2161784363E+02    0.1056590304E+00    0    0
   14    1    9    9    0    0   -0.1183365464E+01   -0.1314603567E+01   -0.1203107238E+01    0.2139159441E+01    0.9406149184E-04    0    0
</event>
<event>
   17 9999    1    0.9119999695E+02    0.7565275169E-02    0.1185000000E+00
   11   -1    0    0    0    0    0.0000000000E+00    0.0000000000E+00    0.8000000000E+02    0.8000000000E+02    0.5109988851E-03    0    0
  -11   -1    0    0    0    0    0.0000000000E+00    0.0000000000E+00   -0.8000000000E+02    0.8000000000E+02    0.5109988851E-03    0    0
  -24    2    1    2    0    0   -0.3135449409E+01   -0.7981442451E+01   -0.2077955246E+02    0.8365637207E+02    0.8057955170E+02    0    0
   24    2    1    2    0    0    0.3135449409E+01    0.7981442451E+01    0.2077955246E+02    0.7634362793E+02    0.7295906830E+02    0    0
   15    2    3    3    0    0    0.2629948807E+02   -0.3145965958E+02   -0.8416857719E+00    0.4105167007E+02    0.1777029991E+01    0    0
  -16    1    3    3    0    0   -0.2943493843E+02    0.2347821617E+02   -0.1993786621E+02    0.4260470200E+02    0.0000000000E+00    0    0
   16    1    4    4    0    0    0.4911968708E+00   -0.1525870800E+02   -0.2163974380E+02    0.2648297882E+02    0.0000000000E+00    0    0
  -15    2    4    4    0    0    0.2102099895E+01   -0.1040122136E+00    0.5946672916E+01    0.6553652287E+01    0.1777029991E+01    0    0
   22    1    4    4    0    0    0.5421527028E+00    0.2334416199E+02    0.3647262192E+02    0.4330699539E+02    0.0000000000E+00    0    0
   16    1    5    5    0    0    0.7099480629E+00   -0.1034033656E+01    0.1258305460E+00    0.1260589242E+01    0.3141977068E-03    0    0
  -24    2    5    5    0    0    0.2559057617E+02   -0.3042686462E+02   -0.9675494432E+00    0.3979269791E+02    0.1360466123E+01    0    0
 -321    1   11   11    0    0    0.9089407921E+01   -0.1103446770E+02   -0.9738792479E-01    0.1430489445E+02    0.4936670959E+00    0    0
  111    1   11   11    0    0    0.4030313492E+01   -0.4598397732E+01   -0.3232629597E+00    0.6124655247E+01    0.1349640042E+00    0    0
  130    1   11   11    0    0    0.1247085667E+02   -0.1479400158E+02   -0.5468986630E+00    0.1936314964E+02    0.4977200031E+00    0    0
  -16    1    8    8    0    0    0.1364846587E+01    0.4566923380E+00    0.4501629353E+01    0.4726095200E+01    0.3343033313E-03    0    0
  -13    1    8    8    0    0    0.4514928758E+00    0.1137806382E-01    0.4605115056E+00    0.6536126137E+00    0.1056589782E+00    0    0
   14    1    8    8    0    0    0.2858417630E+00   -0.5720794201E+00    0.9847739935E+00    0.1174205661E+01    0.2441406250E-03    0    0
</event>
<event>
   21 9999    1    0.9119999695E+02    0.7565275169E-02    0.1185000000E+00
   11   -1    0    0    0    0    0.0000000000E+00    0.0000000000E+00    0.8000000000E+02    0.8000000000E+02    0.5109988851E-03    0    0
  -11   -1    0    0    0    0    0.0000000000E+00    0.0000000000E+00   -0.8000000000E+02    0.8000000000E+02    0.5109988851E-03    0    0
  -24    2    1    2    0    0   -0.4926722050E+01   -0.8193418503E+01   -0.7352089882E+01    0.8013263702E+02    0.7921983337E+02    0    0
   24    2    1    2    0    0    0.4926433563E+01    0.8193343163E+01    0.7348931313E+01    0.7986418915E+02    0.7894860077E+02    0    0
   22    1    1    2    0    0    0.2885813592E-03    0.7567132707E-04    0.3158255946E-02    0.3172315657E-02    0.0000000000E+00    0    0
   15    2    3    3    0    0    0.1620477486E+02    0.2930924225E+02    0.7914912701E+01    0.3445911026E+02    0.1777029991E+01    0    0
  -16    1    3    3    0    0   -0.2113149834E+02   -0.3750266266E+02   -0.1526700211E+02    0.4567352676E+02    0.0000000000E+00    0    0
   16    1    4    4    0    0    0.8224953651E+01    0.4146479416E+02   -0.8014756203E+01    0.4302575302E+02    0.0000000000E+00    0    0
  -15    2    4    4    0    0   -0.3298520327E+01   -0.3327145004E+02    0.1536368847E+02    0.3683843613E+02    0.1777029991E+01    0    0
   16    1    6    6    0    0    0.5659554958E+01    0.1007820320E+02    0.2649977922E+01    0.1185846233E+02    0.7038917392E-03    0    0
  -24    2    6    6    0    0    0.1054585743E+02    0.1923219109E+02    0.5265245914E+01    0.2260200119E+02    0.1426642060E+01    0    0
 -211    1   11   11    0    0    0.5499925613E+01    0.9108940125E+01    0.2610777378E+01    0.1095707989E+02    0.1395679265E+00    0    0
  111    1   11   11    0    0    0.1509098887E+01    0.2591217756E+01    0.9748102427E+00    0.3155987740E+01    0.1349641681E+00    0    0
   22    1   11   11    0    0    0.3536831379E+01    0.7532031059E+01    0.1679657340E+01    0.8488928795E+01    0.8631674427E-04    0    0
  -16    1    9    9    0    0   -0.7608070225E-01   -0.6450720429E+00    0.2395693511E+00    0.6923147440E+00    0.1525878906E-04    0    0
   24    2    9    9    0    0   -0.3222569227E+01   -0.3262768555E+02    0.1512472248E+02    0.3614757156E+02    0.1714263916E+01    0    0
  211    1   16   16    0    0   -0.1449816346E+01   -0.1486795330E+02    0.7062340260E+01    0.1652434921E+02    0.1395677775E+00    0    0
  211    1   16   16    0    0   -0.1625699550E+00   -0.1551237822E+01    0.5207839608E+00    0.1650291681E+01    0.1395677924E+00    0    0
  211    1   16   16    0    0   -0.3311474323E+00   -0.5069194794E+01    0.2387310743E+01    0.5614724159E+01    0.1395679563E+00    0    0
 -211    1   16   16    0    0   -0.4418950081E+00   -0.1995746493E+01    0.9770385027E+00    0.2269880772E+01    0.1395678669E+00    0    0
 -211    1   16   16    0    0   -0.8371404409E+00   -0.9143554688E+01    0.4177248955E+01    0.1008832359E+02    0.1395679414E+00    0    0
</event>
<event>
   20 9999    1    0.9119999695E+02    0.7565275169E-02    0.1185000000E+00
   11   -1    0    0    0    0    0.0000000000E+00    0.0000000000E+00    0.8000000000E+02    0.8000000000E+02    0.5109988851E-03    0    0
  -11   -1    0    0    0    0    0.0000000000E+00    0.0000000000E+00   -0.8000000000E+02    0.8000000000E+02    0.5109988851E-03    0    0
  -24    2    1    2    0    0   -0.9766601562E+01    0.1175739765E+02    0.6221269608E+01    0.7708672333E+02    0.7529964447E+02    0    0
   24    2    1    2    0    0    0.9761897087E+01   -0.1176250648E+02   -0.6094674110E+01    0.8276244354E+02    0.8110996246E+02    0    0
   22    1    1    2    0    0    0.4740200471E-02    0.5032950547E-02   -0.1386270076E+00    0.1387992948E+00    0.0000000000E+00    0    0
   22    1    1    2    0    0   -0.3532905612E-04    0.7658731192E-04    0.1203172747E-01    0.1203202270E-01    0.0000000000E+00    0    0
   15    2    3    3    0    0    0.1745000839E+02   -0.1307624722E+02    0.2702872086E+02    0.3477356339E+02    0.1777029991E+01    0    0
  -16    1    3    3    0    0   -0.2721660995E+02    0.2483364487E+02   -0.2080745125E+02    0.4231316376E+02    0.0000000000E+00    0    0
   16    1    4    4    0    0    0.2302915192E+02   -0.4083940887E+02    0.8386556625E+01    0.4762912369E+02    0.0000000000E+00    0    0
  -15    2    4    4    0    0   -0.1326725388E+02    0.2907690239E+02   -0.1448123074E+02    0.3513331985E+02    0.1777029991E+01    0    0
   16    1    7    7    0    0    0.4874147415E+01   -0.3675491571E+01    0.6982579231E+01    0.9274856567E+01    0.2441406250E-03    0    0
  -24    2    7    7    0    0    0.1257654762E+02   -0.9401269913E+01    0.2004720497E+02    0.2550007439E+02    0.1345325112E+01    0    0
 -321    1   12   12    0    0    0.9889514923E+01   -0.7560784340E+01    0.1566238308E+02    0.2001304245E+02    0.4936669469E+00    0    0
 -211    1   12   12    0    0    0.1275526047E+01   -0.9688144326E+00    0.2498402834E+01    0.2971037626E+01    0.1395677924E+00    0    0
  211    1   12   12    0    0    0.1411507487E+01   -0.8716716766E+00    0.1886419654E+01    0.2515993595E+01    0.1395679861E+00    0    0
  -16    1   10   10    0    0   -0.3600385189E+01    0.7876430035E+01   -0.3698529720E+01    0.9417008400E+01    0.3452669771E-03    0    0
   24    2   10   10    0    0   -0.9667391777E+01    0.2120161819E+02   -0.1078327179E+02    0.2571769524E+02    0.1467604995E+01    0    0
  211    1   17   17    0    0   -0.4513452947E+00    0.9879999161E+00   -0.7057897449E+00    0.1302871704E+01    0.1395680904E+00    0    0
  310    1   17   17    0    0   -0.5809076309E+01    0.1278834057E+02   -0.6767053127E+01    0.1559896660E+02    0.4977201521E+00    0    0
  111    1   17   17    0    0   -0.3406969309E+01    0.7425275803E+01   -0.3310428143E+01    0.8815855980E+01    0.1349640638E+00    0    0
</event>
<event>
   21 9999    1    0.9119999695E+02    0.7565275169E-02    0.1185000000E+00
   11   -1    0    0    0    0    0.0000000000E+00    0.0000000000E+00    0.8000000000E+02    0.8000000000E+02    0.5109988851E-03    0    0
  -11   -1    0    0    0    0    0.0000000000E+00    0.0000000000E+00   -0.8000000000E+02    0.8000000000E+02    0.5109988851E-03    0    0
  -24    2    1    2    0    0   -0.1563272572E+02    0.3144661903E+01    0.8791310310E+01    0.7847509766E+02    0.7633336639E+02    0    0
   24    2    1    2    0    0    0.1563275528E+02   -0.3144818783E+01   -0.8803384781E+01    0.8151215363E+02    0.7945098114E+02    0    0
   22    1    1    2    0    0   -0.2922316889E-04    0.1497887570E-03    0.1198113337E-01    0.1198210567E-01    0.0000000000E+00    0    0
   22    1    1    2    0    0    0.5602038868E-06    0.1189179329E-05    0.4292385129E-03    0.4292405501E-03    0.0000000000E+00    0    0
   22    1    1    2    0    0   -0.2587501058E-06    0.6038726951E-05   -0.3361348063E-03    0.3361891431E-03    0.0000000000E+00    0    0
   15    2    3    3    0    0    0.1701055145E+02   -0.2424218559E+02    0.1824438858E+02    0.3482898331E+02    0.1777029991E+01    0    0
  -16    1    3    3    0    0   -0.3264327621E+02    0.2738684845E+02   -0.9453077316E+01    0.4364611816E+02    0.0000000000E+00    0    0
   16    1    4    4    0    0    0.3253236008E+02    0.8154230118E+01    0.2513444901E+02    0.4191165161E+02    0.0000000000E+00    0    0
  -15    2    4    4    0    0   -0.1689960670E+02   -0.1129904842E+02   -0.3393783569E+02    0.3960050201E+02    0.1777029991E+01    0    0
   16    1    8    8    0    0    0.4392947197E+01   -0.6776210308E+01    0.5374208450E+01    0.9700366974E+01    0.4567452997E-03    0    0
  -24    2    8    8    0    0    0.1261827374E+02   -0.1746692848E+02    0.1287089729E+02    0.2512998390E+02    0.1241643786E+01    0    0
  111    1   13   13    0    0    0.3422559261E+01   -0.4280124664E+01    0.3133061171E+01    0.6314084530E+01    0.1349636465E+00    0    0
  111    1   13   13    0    0    0.4196533203E+01   -0.6140452385E+01    0.4791327000E+01    0.8848224640E+01    0.1349640638E+00    0    0
 -321    1   13   13    0    0    0.4999181271E+01   -0.7046352386E+01    0.4946509838E+01    0.9967676163E+01    0.4936670363E+00    0    0
  -16    1   11   11    0    0   -0.4163292348E+00   -0.2757840157E+00   -0.1267194033E+01    0.1362045407E+01    0.2796982299E-03    0    0
   24    2   11   11    0    0   -0.1648394203E+02   -0.1102370930E+02   -0.3267197800E+02    0.3824001312E+02    0.1264160395E+01    0    0
  111    1   18   18    0    0   -0.2826738119E+01   -0.2216882229E+01   -0.5786657810E+01    0.6812388897E+01    0.1349636763E+00    0    0
  111    1   18   18    0    0   -0.1276700974E+01   -0.9856120348E+00   -0.2890933037E+01    0.3313171387E+01    0.1349640340E+00    0    0
  321    1   18   18    0    0   -0.1238050365E+02   -0.7821215630E+01   -0.2399438477E+02    0.2811445427E+02    0.4936669767E+00    0    0
</event>
<event>
   18 9999    1    0.9119999695E+02    0.7565275169E-02    0.1185000000E+00
   11   -1    0    0    0    0    0.0000000000E+00    0.0000000000E+00    0.8000000000E+02    0.8000000000E+02    0.5109988851E-03    0    0
  -11   -1    0    0    0    0    0.0000000000E+00    0.0000000000E+00   -0.8000000000E+02    0.8000000000E+02    0.5109988851E-03    0    0
  -24    2    1    2    0    0    0.1614357471E+01   -0.1449796557E+01   -0.5292957306E+01    0.8128855133E+02    0.8108702087E+02    0    0
   24    2    1    2    0    0   -0.1614357471E+01    0.1449795842E+01    0.5293325901E+01    0.7871108246E+02    0.7850291443E+02    0    0
   22    1    1    2    0    0    0.9016832081E-07    0.7470021046E-06   -0.3683281248E-03    0.3683289106E-03    0.0000000000E+00    0    0
   15    2    3    3    0    0    0.5988885880E+01    0.3675514984E+02    0.1194225979E+02    0.3914822388E+02    0.1777029991E+01    0    0
  -16    1    3    3    0    0   -0.4374528408E+01   -0.3820494843E+02   -0.1723521805E+02    0.4214032745E+02    0.0000000000E+00    0    0
   16    1    4    4    0    0    0.2871009111E+01   -0.1277778435E+02    0.3935852051E+02    0.4148020935E+02    0.0000000000E+00    0    0
  -15    2    4    4    0    0   -0.4485366821E+01    0.1422758007E+02   -0.3406519699E+02    0.3723087311E+02    0.1777029991E+01    0    0
   16    1    6    6    0    0    0.4332834184E+00    0.1865512371E+01    0.8059719801E+00    0.2077850103E+01    0.3506202775E-03    0    0
  -24    2    6    6    0    0    0.5555838108E+01    0.3489108658E+02    0.1113675880E+02    0.3707191467E+02    0.1429739952E+01    0    0
  130    1   11   11    0    0    0.1349983573E+01    0.8931303978E+01    0.2967468023E+01    0.9520726204E+01    0.4977201223E+00    0    0
 -211    1   11   11    0    0    0.1568943620E+01    0.9121470451E+01    0.3128895521E+01    0.9770991325E+01    0.1395679116E+00    0    0
  310    1   11   11    0    0    0.2636911392E+01    0.1683831406E+02    0.5040395737E+01    0.1778019905E+02    0.4977199137E+00    0    0
  -16    1    9    9    0    0   -0.1161499739E+01    0.3658465385E+01   -0.7261444569E+01    0.8213527679E+01    0.1726334885E-03    0    0
  323    2    9    9    0    0   -0.3324043274E+01    0.1056967449E+02   -0.2680508995E+02    0.2901881027E+02    0.9006643891E+00    0    0
  111    1   16   16    0    0   -0.2033086538E+01    0.6803512573E+01   -0.1743732643E+02    0.1882816505E+02    0.1349637955E+00    0    0
  321    1   16   16    0    0   -0.1290956378E+01    0.3766160965E+01   -0.9367761612E+01    0.1019064236E+02    0.4936669469E+00    0    0
</event>
<event>
   20 9999    1    0.9119999695E+02    0.7565275169E-02    0.1185000000E+00
   11   -1    0    0    0    0    0.0000000000E+00    0.0000000000E+00    0.8000000000E+02    0.8000000000E+02    0.5109988851E-03    0    0
  -11   -1    0    0    0    0    0.0000000000E+00    0.0000000000E+00   -0.8000000000E+02    0.8000000000E+02    0.5109988851E-03    0    0
  -24    2    1    2    0    0    0.2159500122E+02    0.5232291222E+01   -0.1256958127E+01    0.7678970337E+02    0.7349392700E+02    0    0
   24    2    1    2    0    0   -0.2159500313E+02   -0.5232293606E+01    0.1256963611E+01    0.8321028900E+02    0.8017887115E+02    0    0
   15    2    3    3    0    0    0.1522833729E+02   -0.3165345764E+02    0.1187525177E+02    0.3712173462E+02    0.1777029991E+01    0    0
  -16    1    3    3    0    0    0.6366662979E+01    0.3688574982E+02   -0.1313220978E+02    0.3966796875E+02    0.0000000000E+00    0    0
   16    1    4    4    0    0    0.1289324760E+02    0.2576640701E+02   -0.1617062950E+02    0.3303986740E+02    0.0000000000E+00    0    0
  -15    2    4    4    0    0   -0.1562599087E+02   -0.1909041786E+02    0.8782722473E+01    0.2624708748E+02    0.1777029991E+01    0    0
   22    1    4    4    0    0   -0.1886226082E+02   -0.1190828323E+02    0.8644870758E+01    0.2392333221E+02    0.0000000000E+00    0    0
   16    1    5    5    0    0    0.4614074230E+01   -0.1024184132E+02    0.3260085821E+01    0.1169671535E+02    0.4228639591E-03    0    0
  -24    2    5    5    0    0    0.1061486244E+02   -0.2141286087E+02    0.8615633011E+01    0.2542647743E+02    0.1044371843E+01    0    0
 -211    1   11   11    0    0    0.4164264679E+01   -0.8583857536E+01    0.3509227514E+01    0.1016650677E+02    0.1395681500E+00    0    0
 -211    1   11   11    0    0    0.5905485153E+00   -0.1439717174E+01    0.4666574895E+00    0.1630577087E+01    0.1395679414E+00    0    0
  211    1   11   11    0    0    0.1920496941E+01   -0.3959527969E+01    0.1487530589E+01    0.4647407532E+01    0.1395680308E+00    0    0
  111    1   11   11    0    0    0.3939551115E+01   -0.7429755688E+01    0.3152216196E+01    0.8981982231E+01    0.1349640936E+00    0    0
  -16    1    8    8    0    0   -0.2169398069E+01   -0.3315695524E+01    0.1315230131E+01    0.4174920082E+01    0.4708022752E-03    0    0
   24    2    8    8    0    0   -0.1345723057E+02   -0.1577551651E+02    0.7467854023E+01    0.2207325554E+02    0.1222971082E+01    0    0
  211    1   17   17    0    0   -0.3649575233E+01   -0.3766580343E+01    0.1837586403E+01    0.5559022427E+01    0.1395679861E+00    0    0
  111    1   17   17    0    0   -0.5598391533E+01   -0.6712355137E+01    0.2781879425E+01    0.9173590660E+01    0.1349640638E+00    0    0
   22    1   17   17    0    0   -0.4209264755E+01   -0.5296574116E+01    0.2848387480E+01    0.7340634823E+01    0.1726334885E-03    0    0
</event>
<event>
   14 9999    1    0.9119999695E+02    0.7565275169E-02    0.1185000000E+00
   11   -1    0    0    0    0    0.0000000000E+00    0.0000000000E+00    0.8000000000E+02    0.8000000000E+02    0.5109988851E-03    0    0
  -11   -1    0    0    0    0    0.0000000000E+00    0.0000000000E+00   -0.8000000000E+02    0.8000000000E+02    0.5109988851E-03    0    0
  -24    2    1    2    0    0    0.9509325027E+01   -0.2680891275E+01    0.5873017788E+01    0.7961442566E+02    0.7878038788E+02    0    0
   24    2    1    2    0    0   -0.9509325027E+01    0.2680891275E+01   -0.5873017788E+01    0.8038557434E+02    0.7955962372E+02    0    0
   15    2    3    3    0    0   -0.1185493183E+02   -0.2650979614E+02    0.2825840187E+02    0.4055864716E+02    0.1777029991E+01    0    0
  -16    1    3    3    0    0    0.2136425591E+02    0.2382890511E+02   -0.2238538361E+02    0.3905577469E+02    0.0000000000E+00    0    0
   16    1    4    4    0    0   -0.1821159935E+02   -0.3549944687E+02    0.1871574044E+01    0.3994215393E+02    0.0000000000E+00    0    0
  -15    2    4    4    0    0    0.9669281960E+01    0.3349155807E+02   -0.6967315197E+01    0.3559327316E+02    0.1777029991E+01    0    0
   22    1    4    4    0    0   -0.9670069814E+00    0.4688782215E+01   -0.7772764564E+00    0.4850148201E+01    0.0000000000E+00    0    0
   16    1    5    5    0    0   -0.6363227844E+01   -0.1483027172E+02    0.1452190208E+02    0.2170975113E+02    0.0000000000E+00    0    0
 -211    1    5    5    0    0   -0.5492171288E+01   -0.1168056965E+02    0.1373761272E+02    0.1885049438E+02    0.1395681798E+00    0    0
  -16    1    8    8    0    0    0.4008554935E+01    0.1355283070E+02   -0.3060887814E+01    0.1446087265E+02    0.1364787604E-03    0    0
  -11    1    8    8    0    0    0.4134568214E+01    0.1574478817E+02   -0.3502815008E+01    0.1665121269E+02    0.5250442773E-03    0    0
   12    1    8    8    0    0    0.1526560307E+01    0.4195316315E+01   -0.4039001167E+00    0.4482656956E+01    0.4048614355E-03    0    0
</event>
<event>
   15 9999    1    0.9119999695E+02    0.7565275169E-02    0.1185000000E+00
   11   -1    0    0    0    0    0.0000000000E+00    0.0000000000E+00    0.8000000000E+02    0.8000000000E+02    0.5109988851E-03    0    0
  -11   -1    0    0    0    0    0.0000000000E+00    0.0000000000E+00   -0.8000000000E+02    0.8000000000E+02    0.5109988851E-03    0    0
  -24    2    1    2    0    0   -0.1870323372E+02    0.1098740387E+02    0.8170498013E+00    0.7720561981E+02    0.7409120178E+02    0    0
   24    2    1    2    0    0    0.1870323372E+02   -0.1098740387E+02   -0.8170498013E+00    0.8279438019E+02    0.7989810944E+02    0    0
   15    2    3    3    0    0    0.2230982399E+02   -0.6203639507E+01    0.1815159035E+02    0.2947628593E+02    0.1777029991E+01    0    0
  -16    1    3    3    0    0   -0.4101305771E+02    0.1719104385E+02   -0.1733454132E+02    0.4772933197E+02    0.0000000000E+00    0    0
   16    1    4    4    0    0    0.2556457520E+02   -0.3525048447E+02    0.2196026611E+02    0.4876881790E+02    0.0000000000E+00    0    0
  -15    2    4    4    0    0   -0.6861340046E+01    0.2426308060E+02   -0.2277731514E+02    0.3402556229E+02    0.1777029991E+01    0    0
   16    1    5    5    0    0    0.1758811951E+02   -0.5426651478E+01    0.1469103527E+02    0.2355030823E+02    0.2441406250E-03    0    0
 -321    1    5    5    0    0    0.4722584248E+01   -0.7772324681E+00    0.3461270809E+01    0.5927140236E+01    0.4936670363E+00    0    0
  -16    1    8    8    0    0   -0.3421602249E+00    0.1702260017E+01   -0.1251363873E+01    0.2140250921E+01    0.3229676804E-03    0    0
   24    2    8    8    0    0   -0.6519450188E+01    0.2256177521E+02   -0.2152684784E+02    0.3188665199E+02    0.1347759008E+01    0    0
  321    1   12   12    0    0   -0.1548036337E+01    0.5576617718E+01   -0.5009092331E+01    0.7670058250E+01    0.4936669469E+00    0    0
  211    1   12   12    0    0   -0.2272210360E+01    0.6871613979E+01   -0.6912635803E+01    0.1000929737E+02    0.1395680308E+00    0    0
 -211    1   12   12    0    0   -0.2699203253E+01    0.1011354446E+02   -0.9605119705E+01    0.1420729733E+02    0.1395678520E+00    0    0
</event>
<event>
   17 9999    1    0.9119999695E+02    0.7565275169E-02    0.1185000000E+00
   11   -1    0    0    0    0    0.0000000000E+00    0.0000000000E+00    0.8000000000E+02    0.8000000000E+02    0.5109988851E-03    0    0
  -11   -1    0    0    0    0    0.0000000000E+00    0.0000000000E+00   -0.8000000000E+02    0.8000000000E+02    0.5109988851E-03    0    0
  -24    2    1    2    0    0   -0.1113544941E+02    0.1882273293E+02    0.6783935547E+01    0.8439177704E+02    0.8122595978E+02    0    0
   24    2    1    2    0    0    0.1113545132E+02   -0.1882273293E+02   -0.6840579510E+01    0.7555157471E+02    0.7199273682E+02    0    0
   22    1    1    2    0    0   -0.1287861664E-05   -0.6829234849E-06    0.5664435029E-01    0.5664435029E-01    0.0000000000E+00    0    0
   15    2    3    3    0    0   -0.3647528458E+02    0.4689010143E+01    0.2979165077E+02    0.4736173248E+02    0.1777029991E+01    0    0
  -16    1    3    3    0    0    0.2533983612E+02    0.1413372326E+02   -0.2300771523E+02    0.3703004837E+02    0.0000000000E+00    0    0
   16    1    4    4    0    0   -0.1785417747E+02   -0.3332121134E+01    0.2423361015E+02    0.3028436279E+02    0.0000000000E+00    0    0
  -15    2    4    4    0    0    0.2898962975E+02   -0.1549061203E+02   -0.3107419014E+02    0.4526721573E+02    0.1777029991E+01    0    0
   16    1    6    6    0    0   -0.2151408195E+02    0.2832336664E+01    0.1656034470E+02    0.2729693985E+02    0.0000000000E+00    0    0
 -321    1    6    6    0    0   -0.1496264076E+02    0.1856858253E+01    0.1323248005E+02    0.2006665802E+02    0.4936671257E+00    0    0
  -16    1    9    9    0    0    0.1068551350E+02   -0.6307322025E+01   -0.1125601959E+02    0.1675292587E+02    0.4608053132E-03    0    0
   24    2    9    9    0    0    0.1830525780E+02   -0.9183899879E+01   -0.1981939507E+02    0.2851607323E+02    0.9651855826E+00    0    0
  211    1   13   13    0    0    0.2153305054E+01   -0.1058982849E+01   -0.2439779997E+01    0.3424933910E+01    0.1395677030E+00    0    0
  211    1   13   13    0    0    0.6718561649E+01   -0.3538735628E+01   -0.7199358463E+01    0.1046479607E+02    0.1395680457E+00    0    0
 -211    1   13   13    0    0    0.6290190220E+01   -0.3124807119E+01   -0.7082415104E+01    0.9975520134E+01    0.1395680159E+00    0    0
  111    1   13   13    0    0    0.3143201828E+01   -0.1461374760E+01   -0.3097841978E+01    0.4650825024E+01    0.1349639744E+00    0    0
</event>
<event>
   18 9999    1    0.9119999695E+02    0.7565275169E-02    0.1185000000E+00
   11   -1    0    0    0    0    0.0000000000E+00    0.0000000000E+00    0.8000000000E+02    0.8000000000E+02    0.5109988851E-03    0    0
  -11   -1    0    0    0    0    0.0000000000E+00    0.0000000000E+00   -0.8000000000E+02    0.8000000000E+02    0.5109988851E-03    0    0
  -24    2    1    2    0    0   -0.6592575550E+01    0.6769461155E+01    0.2787248039E+02    0.8552761078E+02    0.8030447388E+02    0    0
   24    2    1    2    0    0    0.6604109764E+01   -0.6763887405E+01   -0.1812961197E+02    0.6472951508E+02    0.6141549301E+02    0    0
   22    1    1    2    0    0   -0.1153377816E-01   -0.5573753733E-02   -0.9742867470E+01    0.9742876053E+01    0.0000000000E+00    0    0
   15    2    3    3    0    0    0.2199314880E+02    0.3107638931E+02   -0.1087937713E+01    0.3812849426E+02    0.1777029991E+01    0    0
  -16    1    3    3    0    0   -0.2858572388E+02   -0.2430692863E+02    0.2896041870E+02    0.4739911652E+02    0.0000000000E+00    0    0
   16    1    4    4    0    0    0.1342701530E+02   -0.6824485302E+01    0.2051306725E+02    0.2544885445E+02    0.0000000000E+00    0    0
  -15    2    4    4    0    0   -0.6822905540E+01    0.6059760973E-01   -0.3864268112E+02    0.3928065872E+02    0.1777029991E+01    0    0
   16    1    6    6    0    0    0.5309518814E+01    0.7321208477E+01   -0.3142425790E-01    0.9043896675E+01    0.5790303112E-03    0    0
  -24    2    6    6    0    0    0.1668449593E+02    0.2375640297E+02   -0.1056556344E+01    0.2908609581E+02    0.1464792252E+01    0    0
 -321    1   11   11    0    0    0.4190552711E+01    0.5814059258E+01   -0.2315742821E+00    0.7187582970E+01    0.4936670363E+00    0    0
 -211    1   11   11    0    0    0.5655950308E+00    0.7127805352E+00   -0.7339278609E-01    0.9234823585E+00    0.1395681798E+00    0    0
  321    1   11   11    0    0    0.1192834663E+02    0.1722956276E+02   -0.7515892982E+00    0.2097502899E+02    0.4936670363E+00    0    0
  -16    1    9    9    0    0   -0.5896178484E+00    0.2830087841E+00   -0.2724791765E+01    0.2802183867E+01    0.1057159898E-03    0    0
   24    2    9    9    0    0   -0.6233556747E+01   -0.2224088013E+00   -0.3591941071E+02    0.3648002243E+02    0.1296689034E+01    0    0
  321    1   16   16    0    0   -0.3011815310E+01   -0.8897963911E-01   -0.1976233673E+02    0.1999681473E+02    0.4936669767E+00    0    0
  310    1   16   16    0    0   -0.3221741438E+01   -0.1334292293E+00   -0.1615707588E+02    0.1648321152E+02    0.4977200031E+00    0    0
</event>
<event>
   20 9999    1    0.9119999695E+02    0.7565275169E-02    0.1185000000E+00
   11   -1    0    0    0    0    0.0000000000E+00    0.0000000000E+00    0.8000000000E+02    0.8000000000E+02    0.5109988851E-03    0    0
  -11   -1    0    0    0    0    0.0000000000E+00    0.0000000000E+00   -0.8000000000E+02    0.8000000000E+02    0.5109988851E-03    0    0
  -24    2    1    2    0    0   -0.2006502151E+02   -0.1703082085E+02   -0.1877038002E+01    0.8342830658E+02    0.7914609528E+02    0    0
   24    2    1    2    0    0    0.2006504059E+02    0.1703079033E+02    0.1427989721E+01    0.7612265015E+02    0.7141403198E+02    0    0
   22    1    1    2    0    0   -0.1896680260E-04    0.2958023470E-04    0.4490482509E+00    0.4490482509E+00    0.0000000000E+00    0    0
   15    2    3    3    0    0   -0.4692997360E+02   -0.2621380806E+02   -0.8023791313E+01    0.5437945557E+02    0.1777029991E+01    0    0
  -16    1    3    3    0    0    0.2686495399E+02    0.9182988167E+01    0.6146753311E+01    0.2904884720E+02    0.0000000000E+00    0    0
   16    1    4    4    0    0    0.8644557953E+01   -0.1719883347E+02    0.2605855560E+02    0.3239717102E+02    0.0000000000E+00    0    0
  -15    2    4    4    0    0    0.1142048264E+02    0.3422962570E+02   -0.2463056755E+02    0.4372547531E+02    0.1777029991E+01    0    0
   16    1    6    6    0    0   -0.9547092438E+01   -0.5531534195E+01   -0.1864012957E+01    0.1119014645E+02    0.4485149693E-03    0    0
  -24    2    6    6    0    0   -0.3738472748E+02   -0.2068330574E+02   -0.6160094261E+01    0.4319144821E+02    0.1462013721E+01    0    0
 -211    1   11   11    0    0   -0.2201633215E+01   -0.1311230302E+01   -0.1316422373E+00    0.2569693089E+01    0.1395684034E+00    0    0
 -211    1   11   11    0    0   -0.9689258575E+01   -0.5294836044E+01   -0.1512333393E+01    0.1114556599E+02    0.1395680457E+00    0    0
  211    1   11   11    0    0   -0.1958895493E+02   -0.1103528023E+02   -0.3408957005E+01    0.2274082184E+02    0.1395681053E+00    0    0
  111    1   11   11    0    0   -0.5904882431E+01   -0.3041959286E+01   -0.1107161283E+01    0.6735367298E+01    0.1349640489E+00    0    0
  -16    1    9    9    0    0    0.1690978646E+01    0.4749756813E+01   -0.3821417809E+01    0.6326360226E+01    0.4882812500E-03    0    0
   24    2    9    9    0    0    0.9729952812E+01    0.2948121452E+02   -0.2081011772E+02    0.3740083694E+02    0.1395548701E+01    0    0
  321    1   17   17    0    0    0.3419625998E+01    0.1003322411E+02   -0.7083083153E+01    0.1275826073E+02    0.4936670065E+00    0    0
  111    1   17   17    0    0    0.3267822742E+01    0.9239241600E+01   -0.6542250633E+01    0.1178395081E+02    0.1349639595E+00    0    0
  310    1   17   17    0    0    0.3042504549E+01    0.1020874977E+02   -0.7184784412E+01    0.1285862637E+02    0.4977200627E+00    0    0
</event>
<event>
   17 9999    1    0.9119999695E+02    0.7565275169E-02    0.1185000000E+00
   11   -1    0    0    0    0    0.0000000000E+00    0.0000000000E+00    0.8000000000E+02    0.8000000000E+02    0.5109988851E-03    0    0
  -11   -1    0    0    0    0    0.0000000000E+00    0.0000000000E+00   -0.8000000000E+02    0.8000000000E+02    0.5109988851E-03    0    0
  -24    2    1    2    0    0   -0.1272758842E+01    0.3610439301E+01    0.5637214661E+01    0.8030947876E+02    0.8001985931E+02    0    0
   24    2    1    2    0    0    0.1295181990E+01   -0.3644205332E+01   -0.5468695641E+01    0.7946698761E+02    0.7918420410E+02    0    0
   22    1    1    2    0    0   -0.2251620404E-01    0.3428456932E-01   -0.1938789636E+00    0.1981702894E+00    0.0000000000E+00    0    0
   22    1    1    2    0    0    0.9304319974E-04   -0.5184418405E-03    0.2535974793E-01    0.2536521666E-01    0.0000000000E+00    0    0
   15    2    3    3    0    0   -0.2340265274E+02   -0.2955702209E+02    0.1268955421E+02    0.3981814194E+02    0.1777029991E+01    0    0
  -16    1    3    3    0    0    0.2212989426E+02    0.3316746140E+02   -0.7052340031E+01    0.4049133301E+02    0.0000000000E+00    0    0
   16    1    4    4    0    0    0.1801478958E+02   -0.1441312981E+02    0.3055085373E+02    0.3828348923E+02    0.0000000000E+00    0    0
  -15    2    4    4    0    0   -0.1671960640E+02    0.1076892376E+02   -0.3601955032E+02    0.4118349838E+02    0.1777029991E+01    0    0
   16    1    7    7    0    0   -0.8568832397E+01   -0.1015133286E+02    0.3845345020E+01    0.1382971954E+02    0.0000000000E+00    0    0
 -213    2    7    7    0    0   -0.1483474064E+02   -0.1940685081E+02    0.8844708443E+01    0.2598998833E+02    0.7451017499E+00    0    0
 -211    1   12   12    0    0   -0.5030295849E+01   -0.6421656609E+01    0.2626797676E+01    0.8570944786E+01    0.1395679712E+00    0    0
  111    1   12   12    0    0   -0.9804445267E+01   -0.1298519421E+02    0.6217910767E+01    0.1741904259E+02    0.1349643916E+00    0    0
  -16    1   10   10    0    0   -0.2696093559E+01    0.1932398558E+01   -0.7062551022E+01    0.7802737713E+01    0.1726334885E-03    0    0
  -11    1   10   10    0    0   -0.1232225227E+02    0.7530155659E+01   -0.2574100685E+02    0.2951509094E+02    0.5033087800E-03    0    0
   12    1   10   10    0    0   -0.1701918721E+01    0.1306793690E+01   -0.3217406750E+01    0.3867291451E+01    0.1726334885E-03    0    0
</event>
<event>
   20 9999    1    0.9119999695E+02    0.7565275169E-02    0.1185000000E+00
   11   -1    0    0    0    0    0.0000000000E+00    0.0000000000E+00    0.8000000000E+02    0.8000000000E+02    0.5109988851E-03    0    0
  -11   -1    0    0    0    0    0.0000000000E+00    0.0000000000E+00   -0.8000000000E+02    0.8000000000E+02    0.5109988851E-03    0    0
  -24    2    1    2    0    0   -0.7816892147E+01    0.3152148008E+01   -0.3710428953E+01    0.8085471344E+02    0.8032855988E+02    0    0
   24    2    1    2    0    0    0.7816892147E+01   -0.3152148008E+01    0.3710428953E+01    0.7914528656E+02    0.7860768890E+02    0    0
   15    2    3    3    0    0    0.1181837082E+02    0.2373002243E+02    0.2776651192E+02    0.3843077850E+02    0.1777029991E+01    0    0
  -16    1    3    3    0    0   -0.1963526344E+02   -0.2057787323E+02   -0.3147694016E+02    0.4242393494E+02    0.0000000000E+00    0    0
   16    1    4    4    0    0    0.3980790710E+02    0.1319837856E+02    0.8694186211E+01    0.4283054352E+02    0.0000000000E+00    0    0
  -15    2    4    4    0    0   -0.3199101448E+02   -0.1635052681E+02   -0.4983757496E+01    0.3631473923E+02    0.1777029991E+01    0    0
   16    1    5    5    0    0    0.6574242592E+01    0.1365470123E+02    0.1593777657E+02    0.2199282265E+02    0.6782870623E-03    0    0
  -24    2    5    5    0    0    0.5244593143E+01    0.1007625294E+02    0.1182982731E+02    0.1643946838E+02    0.1129009604E+01    0    0
 -211    1   10   10    0    0    0.1508601546E+01    0.3455253124E+01    0.3987932444E+01    0.5489784718E+01    0.1395684630E+00    0    0
  111    1   10   10    0    0    0.1011203527E+01    0.1572117805E+01    0.1524017930E+01    0.2415560484E+01    0.1349638402E+00    0    0
   22    1   10   10    0    0    0.2724787474E+01    0.5048881054E+01    0.6317875385E+01    0.8534120560E+01    0.1930101134E-03    0    0
  -16    1    8    8    0    0   -0.9771420479E+01   -0.4652397633E+01   -0.1603707433E+01    0.1094062805E+02    0.0000000000E+00    0    0
   24    2    8    8    0    0   -0.2222085381E+02   -0.1169877243E+02   -0.3380246162E+01    0.2537554359E+02    0.1365462065E+01    0    0
  211    1   15   15    0    0   -0.5162510872E+01   -0.2690466642E+01   -0.7821559906E+00    0.5875489712E+01    0.1395679861E+00    0    0
  211    1   15   15    0    0   -0.6924092293E+01   -0.4026844025E+01   -0.1179951310E+01    0.8097548485E+01    0.1395680457E+00    0    0
  211    1   15   15    0    0   -0.1514060140E+01   -0.7623636723E+00   -0.3685972095E+00    0.1740379095E+01    0.1395680308E+00    0    0
 -211    1   15   15    0    0   -0.2456181765E+01   -0.1284053564E+01   -0.2305377871E+00    0.2784645319E+01    0.1395679861E+00    0    0
 -211    1   15   15    0    0   -0.6164009094E+01   -0.2935044527E+01   -0.8190038800E+00    0.6877480507E+01    0.1395679712E+00    0    0
</event>
<event>
   17 9999    1    0.9119999695E+02    0.7565275169E-02    0.1185000000E+00
   11   -1    0    0    0    0    0.0000000000E+00    0.0000000000E+00    0.8000000000E+02    0.8000000000E+02    0.5109988851E-03    0    0
  -11   -1    0    0    0    0    0.0000000000E+00    0.0000000000E+00   -0.8000000000E+02    0.8000000000E+02    0.5109988851E-03    0    0
  -24    2    1    2    0    0   -0.1020464993E+02    0.2422195435E+01   -0.1932287788E+02    0.7959449005E+02    0.7649776459E+02    0    0
   24    2    1    2    0    0    0.1020330334E+02   -0.2421954393E+01    0.1932102394E+02    0.8040300751E+02    0.7733930969E+02    0    0
   22    1    1    2    0    0    0.1347217825E-02   -0.2410963789E-03    0.1960127149E-02    0.2390653128E-02    0.0000000000E+00    0    0
   22    1    1    2    0    0   -0.5362071231E-08    0.2500258889E-08   -0.1058560010E-03    0.1058560010E-03    0.0000000000E+00    0    0
   15    2    3    3    0    0   -0.1971822548E+02    0.4473479748E+01    0.2614374352E+02    0.3309793854E+02    0.1777029991E+01    0    0
  -16    1    3    3    0    0    0.9513575554E+01   -0.2051284075E+01   -0.4546662140E+02    0.4649655151E+02    0.0000000000E+00    0    0
   16    1    4    4    0    0    0.3628484726E+02   -0.2442914391E+02    0.1317128086E+02    0.4568211746E+02    0.0000000000E+00    0    0
  -15    2    4    4    0    0   -0.2608154297E+02    0.2200718880E+02    0.6149742603E+01    0.3472089386E+02    0.1777029991E+01    0    0
   16    1    7    7    0    0   -0.7849273682E+01    0.1866214037E+01    0.1058388710E+02    0.1330836296E+02    0.4464336671E-03    0    0
  -24    2    7    7    0    0   -0.1186972809E+02    0.2607441425E+01    0.1556088448E+02    0.1979087830E+02    0.1359618306E+01    0    0
 -211    1   12   12    0    0   -0.5937639713E+01    0.1354613066E+01    0.7867356300E+01    0.9950141907E+01    0.1395679414E+00    0    0
  310    1   12   12    0    0   -0.3728976011E+01    0.1027072430E+01    0.5254278660E+01    0.6543340683E+01    0.4977200925E+00    0    0
  111    1   12   12    0    0   -0.2203113079E+01    0.2257561237E+00    0.2439250708E+01    0.3297397852E+01    0.1349642575E+00    0    0
  -16    1   10   10    0    0   -0.2302591515E+02    0.1982197952E+02    0.5523024082E+01    0.3088053513E+02    0.3857185366E-03    0    0
  321    1   10   10    0    0   -0.3056656837E+01    0.2186076641E+01    0.6269608140E+00    0.3841727257E+01    0.4936669767E+00    0    0
</event>
<event>
   18 9999    1    0.9119999695E+02    0.7565275169E-02    0.1185000000E+00
   11   -1    0    0    0    0    0.0000000000E+00    0.0000000000E+00    0.8000000000E+02    0.8000000000E+02    0.5109988851E-03    0    0
  -11   -1    0    0    0    0    0.0000000000E+00    0.0000000000E+00   -0.8000000000E+02    0.8000000000E+02    0.5109988851E-03    0    0
  -24    2    1    2    0    0    0.3588949442E+01   -0.5619402409E+01    0.2722600746E+02    0.7589557648E+02    0.7052960205E+02    0    0
   24    2    1    2    0    0   -0.3588949442E+01    0.5619402409E+01   -0.2722600746E+02    0.8410442352E+02    0.7929590607E+02    0    0
   15    2    3    3    0    0   -0.1962698174E+02   -0.2921335411E+02    0.2400527382E+02    0.4263859177E+02    0.1777029991E+01    0    0
  -16    1    3    3    0    0    0.2321593094E+02    0.2359395027E+02    0.3220733166E+01    0.3325698471E+02    0.0000000000E+00    0    0
   16    1    4    4    0    0    0.3490717697E+02   -0.1219083023E+02   -0.1012527466E+02    0.3833599472E+02    0.0000000000E+00    0    0
  -15    2    4    4    0    0   -0.3849612808E+02    0.1781023216E+02   -0.1710073280E+02    0.4576842880E+02    0.1777029991E+01    0    0
   16    1    5    5    0    0   -0.1215693283E+02   -0.1741349983E+02    0.1486014843E+02    0.2591997337E+02    0.2589502255E-03    0    0
  -24    2    5    5    0    0   -0.7470821381E+01   -0.1180100441E+02    0.9146070480E+01    0.1672029686E+02    0.9169768691E+00    0    0
  111    1   10   10    0    0   -0.1697243094E+01   -0.2962126017E+01    0.2400771618E+01    0.4175733089E+01    0.1349639893E+00    0    0
  111    1   10   10    0    0   -0.1348855853E+01   -0.2083813906E+01    0.1592151642E+01    0.2952093124E+01    0.1349639595E+00    0    0
  111    1   10   10    0    0   -0.2469762087E+01   -0.4053995132E+01    0.2867419243E+01    0.5547513962E+01    0.1349640638E+00    0    0
 -211    1   10   10    0    0   -0.1954960704E+01   -0.2701069355E+01    0.2285728455E+01    0.4044957638E+01    0.1395679265E+00    0    0
  -16    1    8    8    0    0   -0.4548900127E+01    0.1684480309E+01   -0.1782751083E+01    0.5167994976E+01    0.7475249731E-04    0    0
   24    2    8    8    0    0   -0.3394874191E+02    0.1612645340E+02   -0.1531865406E+02    0.4060223389E+02    0.1140515566E+01    0    0
  321    1   16   16    0    0   -0.2004690170E+02    0.9487008095E+01   -0.9318790436E+01    0.2406169510E+02    0.4936669469E+00    0    0
  310    1   16   16    0    0   -0.1390183926E+02    0.6639443398E+01   -0.5999862671E+01    0.1654053879E+02    0.4977199137E+00    0    0
</event>
<event>
   18 9999    1    0.9119999695E+02    0.7565275169E-02    0.1185000000E+00
   11   -1    0    0    0    0    0.0000000000E+00    0.0000000000E+00    0.8000000000E+02    0.8000000000E+02    0.5109988851E-03    0    0
  -11   -1    0    0    0    0    0.0000000000E+00    0.0000000000E+00   -0.8000000000E+02    0.8000000000E+02    0.5109988851E-03    0    0
  -24    2    1    2    0    0    0.2750744104E+01    0.9583732605E+01    0.6689137936E+01    0.7997647095E+02    0.7907007599E+02    0    0
   24    2    1    2    0    0   -0.2750744104E+01   -0.9583732605E+01   -0.6689232826E+01    0.8002343750E+02    0.7911756897E+02    0    0
   22    1    1    2    0    0   -0.5762465172E-08   -0.4081916471E-09    0.9475727711E-04    0.9475727711E-04    0.0000000000E+00    0    0
   15    2    3    3    0    0   -0.8998147845E+00    0.3174741173E+02    0.3269277573E+02    0.4561450577E+02    0.1777029991E+01    0    0
  -16    1    3    3    0    0    0.3650558949E+01   -0.2216367912E+02   -0.2600363731E+02    0.3436196136E+02    0.0000000000E+00    0    0
   16    1    4    4    0    0    0.2894404221E+02    0.1912317085E+02    0.6380639076E+01    0.3527273560E+02    0.0000000000E+00    0    0
  -15    2    4    4    0    0   -0.3169478798E+02   -0.2870690346E+02   -0.1306987190E+02    0.4475070190E+02    0.1777029991E+01    0    0
   16    1    6    6    0    0    0.8816070855E-01    0.8241676331E+01    0.8306834221E+01    0.1170198631E+02    0.1141863249E-03    0    0
  -24    2    6    6    0    0   -0.9880108833E+00    0.2350698471E+02    0.2438722801E+02    0.3391431427E+02    0.1374547124E+01    0    0
 -321    1   11   11    0    0   -0.1152403429E+00    0.1356666374E+02    0.1391408730E+02    0.1943998909E+02    0.4936669767E+00    0    0
  130    1   11   11    0    0   -0.8727704883E+00    0.9940322876E+01    0.1047314262E+02    0.1447432804E+02    0.4977199435E+00    0    0
  -16    1    9    9    0    0   -0.1164582729E+02   -0.1040185642E+02   -0.4674106121E+01    0.1629942322E+02    0.5023827543E-03    0    0
   24    2    9    9    0    0   -0.2005020523E+02   -0.1830617523E+02   -0.8396279335E+01    0.2845303726E+02    0.1396785736E+01    0    0
  111    1   15   15    0    0   -0.4930597782E+01   -0.4328495502E+01   -0.2123511791E+01    0.6897404194E+01    0.1349640191E+00    0    0
  111    1   15   15    0    0   -0.1209215641E+02   -0.1113204384E+02   -0.5122179985E+01    0.1721620178E+02    0.1349638849E+00    0    0
  321    1   15   15    0    0   -0.3027451038E+01   -0.2845634937E+01   -0.1150587678E+01    0.4339430809E+01    0.4936670363E+00    0    0
</event>
<event>
   20 9999    1    0.9119999695E+02    0.7565275169E-02    0.1185000000E+00
   11   -1    0    0    0    0    0.0000000000E+00    0.0000000000E+00    0.8000000000E+02    0.8000000000E+02    0.5109988851E-03    0    0
  -11   -1    0    0    0    0    0.0000000000E+00    0.0000000000E+00   -0.8000000000E+02    0.8000000000E+02    0.5109988851E-03    0    0
  -24    2    1    2    0    0    0.2070822716E+02    0.2787883043E+01    0.3273045778E+01    0.8277603912E+02    0.8002847290E+02    0    0
   24    2    1    2    0    0   -0.2070822716E+02   -0.2787883043E+01   -0.3273045778E+01    0.7722396088E+02    0.7427128601E+02    0    0
   15    2    3    3    0    0    0.4614754486E+02    0.1961174011E+02    0.1088653660E+02    0.5134092712E+02    0.1777029991E+01    0    0
  -16    1    3    3    0    0   -0.2543931770E+02   -0.1682385826E+02   -0.7613491058E+01    0.3143511200E+02    0.0000000000E+00    0    0
   16    1    4    4    0    0   -0.2300898075E+01    0.1986499786E+02    0.2800045586E+02    0.3440839767E+02    0.0000000000E+00    0    0
  -15    2    4    4    0    0   -0.1840732956E+02   -0.2265287971E+02   -0.3127350235E+02    0.4281556320E+02    0.1777029991E+01    0    0
   16    1    5    5    0    0    0.8074038506E+01    0.3094365835E+01    0.1879927397E+01    0.8848690987E+01    0.3582465870E-03    0    0
  -24    2    5    5    0    0    0.3807532120E+02    0.1651814651E+02    0.9007038116E+01    0.4249425507E+02    0.1433803797E+01    0    0
 -321    1   10   10    0    0    0.1330762577E+02    0.6126430988E+01    0.3022362232E+01    0.1496677780E+02    0.4936670661E+00    0    0
  111    1   10   10    0    0    0.8873562813E+01    0.3604238749E+01    0.2047434330E+01    0.9794940948E+01    0.1349635124E+00    0    0
  310    1   10   10    0    0    0.1589413929E+02    0.6787479401E+01    0.3937242508E+01    0.1773254395E+02    0.4977200627E+00    0    0
  -16    1    8    8    0    0   -0.5424079418E+01   -0.6642328262E+01   -0.8527542114E+01    0.1209380531E+02    0.4567452997E-03    0    0
   24    2    8    8    0    0   -0.1298397350E+02   -0.1601144409E+02   -0.2274718857E+02    0.3072344208E+02    0.1243129849E+01    0    0
  211    1   15   15    0    0   -0.2310429335E+01   -0.2724607468E+01   -0.3855557442E+01    0.5257981777E+01    0.1395678520E+00    0    0
  211    1   15   15    0    0   -0.9544219971E+00   -0.1050929189E+01   -0.1345420003E+01    0.1960869074E+01    0.1395679414E+00    0    0
 -211    1   15   15    0    0   -0.1307507873E+01   -0.1576005220E+01   -0.2185332537E+01    0.2998087168E+01    0.1395679861E+00    0    0
  111    1   15   15    0    0   -0.5685307980E+01   -0.7010844231E+01   -0.1009534740E+02    0.1354285526E+02    0.1349638999E+00    0    0
  111    1   15   15    0    0   -0.2726306677E+01   -0.3649057627E+01   -0.5265532017E+01    0.6963649273E+01    0.1349639744E+00    0    0
</event>
<event>
   20 9999    1    0.9119999695E+02    0.7565275169E-02    0.1185000000E+00
   11   -1    0    0    0    0    0.0000000000E+00    0.0000000000E+00    0.8000000000E+02    0.8000000000E+02    0.5109988851E-03    0    0
  -11   -1    0    0    0    0    0.0000000000E+00    0.0000000000E+00   -0.8000000000E+02    0.8000000000E+02    0.5109988851E-03    0    0
  -24    2    1    2    0    0    0.1509007645E+02    0.9676109314E+01   -0.8227322578E+01    0.8028512573E+02    0.7782464600E+02    0    0
   24    2    1    2    0    0   -0.1509007645E+02   -0.9676109314E+01    0.8227322578E+01    0.7971487427E+02    0.7723622131E+02    0    0
   15    2    3    3    0    0   -0.2736651802E+02   -0.7691901326E+00    0.1447557735E+02    0.3101963997E+02    0.1777029991E+01    0    0
  -16    1    3    3    0    0    0.4245659256E+02    0.1044530010E+02   -0.2270289993E+02    0.4926548767E+02    0.0000000000E+00    0    0
   16    1    4    4    0    0   -0.3656106567E+02    0.1485992336E+02   -0.1206758881E+02    0.4126930618E+02    0.0000000000E+00    0    0
  -15    2    4    4    0    0    0.2147098923E+02   -0.2453603363E+02    0.2029491043E+02    0.3844556427E+02    0.1777029991E+01    0    0
   16    1    5    5    0    0   -0.1150047064E+01    0.2225662917E+00    0.6268354654E+00    0.1328558087E+01    0.5709316247E-04    0    0
  -24    2    5    5    0    0   -0.2621754837E+02   -0.9917867184E+00    0.1384931183E+02    0.2969230461E+02    0.1219020963E+01    0    0
 -321    1   10   10    0    0   -0.1374647999E+02   -0.2038511485E+00    0.7433309555E+01    0.1563665771E+02    0.4936669767E+00    0    0
  310    1   10   10    0    0   -0.1247107029E+02   -0.7879357338E+00    0.6416003227E+01    0.1405564880E+02    0.4977200031E+00    0    0
  -16    1    8    8    0    0    0.4711465240E+00   -0.3749117255E+00    0.4031072557E+00    0.7245917916E+00    0.5060767944E-04    0    0
   24    2    8    8    0    0    0.2100068855E+02   -0.2416208649E+02    0.1989260292E+02    0.3772248840E+02    0.1560474038E+01    0    0
  211    1   14   14    0    0    0.7183457375E+01   -0.8115498543E+01    0.6559222698E+01    0.1266910648E+02    0.1395679861E+00    0    0
  211    1   14   14    0    0    0.1139892936E+01   -0.1225304365E+01    0.9295653105E+00    0.1919452429E+01    0.1395679861E+00    0    0
 -211    1   14   14    0    0    0.5126047134E+01   -0.5977927208E+01    0.4873463631E+01    0.9261862755E+01    0.1395679712E+00    0    0
  111    1   14   14    0    0    0.3093900681E+01   -0.3568201303E+01    0.3009736776E+01    0.5601875782E+01    0.1349639893E+00    0    0
  111    1   14   14    0    0    0.1408431411E+01   -0.1406098604E+01    0.1407970548E+01    0.2441595554E+01    0.1349639297E+00    0    0
  111    1   14   14    0    0    0.3048958302E+01   -0.3869056940E+01    0.3112643719E+01    0.5828594685E+01    0.1349639446E+00    0    0
</event>
<event>
   17 9999    1    0.9119999695E+02    0.7565275169E-02    0.1185000000E+00
   11   -1    0    0    0    0    0.0000000000E+00    0.0000000000E+00    0.8000000000E+02    0.8000000000E+02    0.5109988851E-03    0    0
  -11   -1    0    0    0    0    0.0000000000E+00    0.0000000000E+00   -0.8000000000E+02    0.8000000000E+02    0.5109988851E-03    0    0
  -24    2    1    2    0    0   -0.6740821838E+01   -0.8161144257E+01   -0.1015331984E+01    0.7751869965E+02    0.7678590393E+02    0    0
   24    2    1    2    0    0    0.6740795135E+01    0.8161149979E+01    0.1015318274E+01    0.8248126984E+02    0.8179294586E+02    0    0
   15    2    3    3    0    0   -0.1084745979E+02    0.3165449142E+02    0.8410093307E+01    0.3454796219E+02    0.1777029991E+01    0    0
  -16    1    3    3    0    0    0.4267160416E+01   -0.4071891022E+02   -0.9560753822E+01    0.4204338455E+02    0.0000000000E+00    0    0
   22    1    3    3    0    0   -0.1605227143E+00    0.9032723904E+00    0.1353284568E+00    0.9273523092E+00    0.0000000000E+00    0    0
   16    1    4    4    0    0   -0.2957138062E+02   -0.1805353165E+02    0.1139758873E+02    0.3647330093E+02    0.0000000000E+00    0    0
  -15    2    4    4    0    0    0.3631217575E+02    0.2621468353E+02   -0.1038227081E+02    0.4600796890E+02    0.1777029991E+01    0    0
   16    1    5    5    0    0   -0.9866338730E+01    0.2932071114E+02    0.7476189613E+01    0.3182675171E+02    0.1495049946E-03    0    0
   13    1    5    5    0    0   -0.1957721859E+00    0.7991462946E+00    0.2471555620E+00    0.8655698299E+00    0.1056590080E+00    0    0
  -14    1    5    5    0    0   -0.7857678533E+00    0.1535857201E+01    0.6870734692E+00    0.1856975555E+01    0.2589502255E-03    0    0
  -16    1    9    9    0    0    0.2288694620E+01    0.1822082996E+01   -0.4766395688E+00    0.2963999748E+01    0.1220703125E-03    0    0
   24    2    9    9    0    0    0.3402490997E+02    0.2439363289E+02   -0.9906040192E+01    0.4304578018E+02    0.1437236309E+01    0    0
  321    1   14   14    0    0    0.1644603539E+02    0.1156031704E+02   -0.4957979679E+01    0.2071082497E+02    0.4936670065E+00    0    0
  111    1   14   14    0    0    0.4327797413E+01    0.2949616432E+01   -0.1327051878E+01    0.5404567242E+01    0.1349639893E+00    0    0
  310    1   14   14    0    0    0.1325107956E+02    0.9883698463E+01   -0.3621008158E+01    0.1693038750E+02    0.4977200329E+00    0    0
</event>
<event>
   17 9999    1    0.9119999695E+02    0.7565275169E-02    0.1185000000E+00
   11   -1    0    0    0    0    0.0000000000E+00    0.0000000000E+00    0.8000000000E+02    0.8000000000E+02    0.5109988851E-03    0    0
  -11   -1    0    0    0    0    0.0000000000E+00    0.0000000000E+00   -0.8000000000E+02    0.8000000000E+02    0.5109988851E-03    0    0
  -24    2    1    2    0    0    0.1502434254E+02    0.2440871048E+02    0.2101177454E+01    0.7396582794E+02    0.6815432739E+02    0    0
   24    2    1    2    0    0   -0.1489754868E+02   -0.2445078087E+02   -0.2907644987E+01    0.8521671295E+02    0.8021007538E+02    0    0
   22    1    1    2    0    0   -0.1267936975E+00    0.4207197577E-01    0.8064676523E+00    0.8174574971E+00    0.0000000000E+00    0    0
   15    2    3    3    0    0   -0.1500040054E+02    0.2927885056E+02    0.2012833786E+02    0.3860791397E+02    0.1777029991E+01    0    0
  -16    1    3    3    0    0    0.3002474403E+02   -0.4870141506E+01   -0.1802716064E+02    0.3535791397E+02    0.0000000000E+00    0    0
   16    1    4    4    0    0   -0.4404820251E+02    0.3457090139E+01    0.3476427555E+01    0.4432021332E+02    0.0000000000E+00    0    0
  -15    2    4    4    0    0    0.2915065384E+02   -0.2790787125E+02   -0.6384072781E+01    0.4089650345E+02    0.1777029991E+01    0    0
   16    1    6    6    0    0   -0.7782046318E+01    0.1401752663E+02    0.1007957554E+02    0.1893803406E+02    0.1805444335E-03    0    0
   11    1    6    6    0    0   -0.6963331699E+01    0.1468459415E+02    0.9446468353E+01    0.1879789925E+02    0.4567452997E-03    0    0
  -12    1    6    6    0    0   -0.2556133270E+00    0.5778826475E+00    0.6030850410E+00    0.8734976649E+00    0.0000000000E+00    0    0
  -16    1    9    9    0    0    0.9887465477E+01   -0.8956386566E+01   -0.2532206774E+01    0.1357906151E+02    0.3452669771E-03    0    0
   24    2    9    9    0    0    0.1926433372E+02   -0.1895258141E+02   -0.3852117062E+01    0.2731905174E+02    0.1084818244E+01    0    0
  211    1   14   14    0    0    0.6980889797E+01   -0.6889671326E+01   -0.1235270619E+01    0.9886646271E+01    0.1395679861E+00    0    0
  111    1   14   14    0    0    0.8590714455E+01   -0.8443666458E+01   -0.2194398403E+01    0.1224456882E+02    0.1349640936E+00    0    0
   22    1   14   14    0    0    0.3692729950E+01   -0.3619245052E+01   -0.4224480987E+00    0.5187836647E+01    0.0000000000E+00    0    0
</event>
<event>
   14 9999    1    0.9119999695E+02    0.7565275169E-02    0.1185000000E+00
   11   -1    0    0    0    0    0.0000000000E+00    0.0000000000E+00    0.8000000000E+02    0.8000000000E+02    0.5109988851E-03    0    0
  -11   -1    0    0    0    0    0.0000000000E+00    0.0000000000E+00   -0.8000000000E+02    0.8000000000E+02    0.5109988851E-03    0    0
  -24    2    1    2    0    0    0.8344141960E+01   -0.2181241798E+02    0.1586154842E+02    0.8533695984E+02    0.8053199005E+02    0    0
   24    2    1    2    0    0   -0.8344117165E+01    0.2181241226E+02   -0.1442966270E+02    0.7323115540E+02    0.6789095306E+02    0    0
   22    1    1    2    0    0   -0.2528453115E-04    0.6781286629E-05   -0.1431885242E+01    0.1431885242E+01    0.0000000000E+00    0    0
   15    2    3    3    0    0    0.3146428823E+01    0.2657895660E+02    0.2399813080E+02    0.3599179077E+02    0.1777029991E+01    0    0
  -16    1    3    3    0    0    0.5197713375E+01   -0.4839137650E+02   -0.8136582375E+01    0.4934516525E+02    0.0000000000E+00    0    0
   16    1    4    4    0    0    0.2581079674E+02    0.2251306915E+02   -0.1825297356E+02    0.3880987549E+02    0.0000000000E+00    0    0
  -15    2    4    4    0    0   -0.3415491486E+02   -0.7006572485E+00    0.3823310375E+01    0.3442127991E+02    0.1777029991E+01    0    0
   16    1    6    6    0    0    0.8222334385E+00    0.1008083344E+02    0.8109267235E+01    0.1296377563E+02    0.0000000000E+00    0    0
 -321    1    6    6    0    0    0.2324319363E+01    0.1649917030E+02    0.1588980865E+02    0.2302943420E+02    0.4936670661E+00    0    0
  -16    1    9    9    0    0   -0.1704862595E+02   -0.2672224343E+00    0.2269601583E+01    0.1720110893E+02    0.2441406250E-03    0    0
  -13    1    9    9    0    0   -0.2016422033E+01   -0.2031948715E+00    0.5100960135E+00    0.2092512131E+01    0.1056588888E+00    0    0
   14    1    9    9    0    0   -0.1509121132E+02   -0.2302675396E+00    0.1043763280E+01    0.1512901592E+02    0.2990099892E-03    0    0
</event>
<event>
   24 9999    1    0.9119999695E+02    0.7565275169E-02    0.1185000000E+00
   11   -1    0    0    0    0    0.0000000000E+00    0.0000000000E+00    0.8000000000E+02    0.8000000000E+02    0.5109988851E-03    0    0
  -11   -1    0    0    0    0    0.0000000000E+00    0.0000000000E+00   -0.8000000000E+02    0.8000000000E+02    0.5109988851E-03    0    0
  -24    2    1    2    0    0    0.2627669461E-01    0.2843545914E+01   -0.8051569015E-01    0.7903973389E+02    0.7898852539E+02    0    0
   24    2    1    2    0    0   -0.3305123374E-01   -0.2849570513E+01    0.1231543645E+00    0.8091435242E+02    0.8086405945E+02    0    0
   22    1    1    2    0    0    0.2977253636E-02   -0.7643828867E-03   -0.2842199989E-01    0.2858773246E-01    0.0000000000E+00    0    0
   22    1    1    2    0    0    0.2843135037E-02    0.2897681668E-02   -0.1109078992E-01    0.1181040145E-01    0.0000000000E+00    0    0
   22    1    1    2    0    0    0.1044812729E-02    0.3943816293E-02   -0.2310861833E-02    0.4688859452E-02    0.0000000000E+00    0    0
   22    1    1    2    0    0   -0.9066272469E-04   -0.5258743477E-04   -0.8150240174E-03    0.8217355353E-03    0.0000000000E+00    0    0
   15    2    3    3    0    0   -0.3696720886E+02   -0.1176353931E+02   -0.4167387962E+01    0.3905739975E+02    0.1777029991E+01    0    0
  -16    1    3    3    0    0    0.3699348450E+02    0.1460708523E+02    0.4086872101E+01    0.3998233795E+02    0.0000000000E+00    0    0
   16    1    4    4    0    0    0.3523782492E+01   -0.2839033508E+02    0.2996884346E+02    0.4143138504E+02    0.0000000000E+00    0    0
  -15    2    4    4    0    0   -0.3556833744E+01    0.2554076385E+02   -0.2984568977E+02    0.3948296738E+02    0.1777029991E+01    0    0
   16    1    9    9    0    0   -0.3032212019E+01   -0.1104058623E+01   -0.2524555922E+00    0.3236817837E+01    0.2660460887E-03    0    0
  -24    2    9    9    0    0   -0.3393645096E+02   -0.1065994358E+02   -0.3915096283E+01    0.3582211685E+02    0.1605916858E+01    0    0
 -211    1   14   14    0    0   -0.1094895649E+02   -0.3445768595E+01   -0.6670295596E+00    0.1149858189E+02    0.1395679563E+00    0    0
  111    1   14   14    0    0   -0.9893371582E+01   -0.3115446329E+01   -0.1776654601E+01    0.1052423477E+02    0.1349643916E+00    0    0
   22    1   14   14    0    0   -0.1309412479E+02   -0.4098729134E+01   -0.1471412182E+01    0.1379930210E+02    0.9561982006E-04    0    0
  -16    1   12   12    0    0   -0.1162972212E+01    0.7454652786E+01   -0.8522017479E+01    0.1138196564E+02    0.0000000000E+00    0    0
   24    2   12   12    0    0   -0.2394001245E+01    0.1808711433E+02   -0.2132484627E+02    0.2810255432E+02    0.1459295034E+01    0    0
  211    1   19   19    0    0   -0.1477385044E+01    0.1218840981E+02   -0.1415536594E+02    0.1873856544E+02    0.1395679116E+00    0    0
  211    1   19   19    0    0   -0.8826147765E-01    0.1228791952E+01   -0.1312195659E+01    0.1805285692E+01    0.1395679861E+00    0    0
  211    1   19   19    0    0   -0.2477959841E+00    0.1337321997E+01   -0.1801628351E+01    0.2261675596E+01    0.1395679712E+00    0    0
 -211    1   19   19    0    0   -0.2799885571E+00    0.2196022511E+01   -0.2502039909E+01    0.3343739033E+01    0.1395680010E+00    0    0
 -211    1   19   19    0    0   -0.3005702198E+00    0.1136569023E+01   -0.1553615570E+01    0.1953287482E+01    0.1395679712E+00    0    0
</event>
<event>
   20 9999    1    0.9119999695E+02    0.7565275169E-02    0.1185000000E+00
   11   -1    0    0    0    0    0.0000000000E+00    0.0000000000E+00    0.8000000000E+02    0.8000000000E+02    0.5109988851E-03    0    0
  -11   -1    0    0    0    0    0.0000000000E+00    0.0000000000E+00   -0.8000000000E+02    0.8000000000E+02    0.5109988851E-03    0    0
  -24    2    1    2    0    0    0.4642024040E+01    0.8119203568E+01   -0.1172618866E+02    0.8303553772E+02    0.8166962433E+02    0    0
   24    2    1    2    0    0   -0.4641919136E+01   -0.8119243622E+01    0.1180673218E+02    0.7688391876E+02    0.7539408875E+02    0    0
   22    1    1    2    0    0    0.2755713467E-05    0.3339986279E-05   -0.4649662226E-01    0.4649662226E-01    0.0000000000E+00    0    0
   22    1    1    2    0    0   -0.1080528236E-03    0.3719166489E-04   -0.3404682502E-01    0.3404701501E-01    0.0000000000E+00    0    0
   15    2    3    3    0    0   -0.2607359314E+02    0.2725352049E+01   -0.3525494385E+02    0.4396963501E+02    0.1777029991E+01    0    0
  -16    1    3    3    0    0    0.3071561813E+02    0.5393851280E+01    0.2352875328E+02    0.3906590652E+02    0.0000000000E+00    0    0
   16    1    4    4    0    0   -0.3231433868E+02    0.1855455208E+02    0.8820023537E+01    0.3829204559E+02    0.0000000000E+00    0    0
  -15    2    4    4    0    0    0.2767242050E+02   -0.2667379570E+02    0.2986709356E+01    0.3859187317E+02    0.1777029991E+01    0    0
   16    1    7    7    0    0   -0.6231893063E+01    0.8811937571E+00   -0.8338051796E+01    0.1044682217E+02    0.4298268468E-03    0    0
  -24    2    7    7    0    0   -0.1984272575E+02    0.1844265699E+01   -0.2691827774E+02    0.3352453995E+02    0.1471743822E+01    0    0
 -321    1   12   12    0    0   -0.1312849712E+02    0.1276552796E+01   -0.1798254776E+02    0.2230701065E+02    0.4936669767E+00    0    0
 -211    1   12   12    0    0   -0.1750647664E+01    0.4561553597E+00   -0.2394928932E+01    0.3004664421E+01    0.1395682096E+00    0    0
  211    1   12   12    0    0   -0.4963578701E+01    0.1115572155E+00   -0.6540797710E+01    0.8212860107E+01    0.1395680755E+00    0    0
  -16    1   10   10    0    0    0.8263690472E+00   -0.1015275598E+01    0.2827261984E+00    0.1339255214E+01    0.4401307669E-03    0    0
20213    2   10   10    0    0    0.2684713936E+02   -0.2565957069E+02    0.2704100609E+01    0.3725413513E+02    0.1172985911E+01    0    0
  111    1   17   17    0    0    0.1524589825E+02   -0.1419989014E+02    0.1297136426E+01    0.2087522697E+02    0.1349643171E+00    0    0
  111    1   17   17    0    0    0.8300717354E+01   -0.7864964485E+01    0.1041860819E+01    0.1148317337E+02    0.1349631697E+00    0    0
  211    1   17   17    0    0    0.3300529003E+01   -0.3594720364E+01    0.3651039004E+00    0.4895741463E+01    0.1395679563E+00    0    0
</event>
<event>
   21 9999    1    0.9119999695E+02    0.7565275169E-02    0.1185000000E+00
   11   -1    0    0    0    0    0.0000000000E+00    0.0000000000E+00    0.8000000000E+02    0.8000000000E+02    0.5109988851E-03    0    0
  -11   -1    0    0    0    0    0.0000000000E+00    0.0000000000E+00   -0.8000000000E+02    0.8000000000E+02    0.5109988851E-03    0    0
  -24    2    1    2    0    0    0.4333930016E+01    0.1164084911E+02    0.3327583075E+01    0.8079061127E+02    0.7976062775E+02    0    0
   24    2    1    2    0    0   -0.4333693981E+01   -0.1164082527E+02   -0.1486419082E+01    0.7736822510E+02    0.7635013580E+02    0    0
   22    1    1    2    0    0   -0.2362477826E-03   -0.2368698188E-04   -0.1841163993E+01    0.1841163993E+01    0.0000000000E+00    0    0
   15    2    3    3    0    0    0.5227192879E+01    0.3884347534E+02    0.2454608345E+02    0.4627966309E+02    0.1777029991E+01    0    0
  -16    1    3    3    0    0   -0.8932627439E+00   -0.2720262718E+02   -0.2121850204E+02    0.3451094818E+02    0.0000000000E+00    0    0
   16    1    4    4    0    0    0.2156713104E+02    0.2445679855E+02    0.2631501198E+01    0.3271392441E+02    0.0000000000E+00    0    0
  -15    2    4    4    0    0   -0.2590082550E+02   -0.3609762192E+02   -0.4117919922E+01    0.4465429688E+02    0.1777029991E+01    0    0
   16    1    6    6    0    0    0.2455979347E+01    0.1901679993E+02    0.1168655109E+02    0.2245542336E+02    0.6342959241E-03    0    0
  -24    2    6    6    0    0    0.2771418810E+01    0.1982820320E+02    0.1286049747E+02    0.2382605934E+02    0.1204305410E+01    0    0
 -211    1   11   11    0    0    0.1083575606E+01    0.5392905712E+01    0.3586266756E+01    0.6567979813E+01    0.1395678371E+00    0    0
 -211    1   11   11    0    0    0.9635031819E+00    0.8915956497E+01    0.5692269802E+01    0.1062280750E+02    0.1395679265E+00    0    0
  211    1   11   11    0    0    0.1982847154E+00    0.2906758308E+01    0.1852180004E+01    0.3455229521E+01    0.1395681351E+00    0    0
  111    1   11   11    0    0    0.5260554552E+00    0.2612581730E+01    0.1729781151E+01    0.3180043459E+01    0.1349640042E+00    0    0
  -16    1    9    9    0    0   -0.4635232925E+01   -0.5840542793E+01   -0.7053632736E+00    0.7489650249E+01    0.2516833192E-03    0    0
   24    2    9    9    0    0   -0.2126661301E+02   -0.3025850296E+02   -0.3412719250E+01    0.3716640854E+02    0.1359887838E+01    0    0
  211    1   17   17    0    0   -0.4966809750E+01   -0.7418334961E+01   -0.1000636101E+01    0.8984522820E+01    0.1395680755E+00    0    0
  211    1   17   17    0    0   -0.7098661423E+01   -0.9777052879E+01   -0.1413552165E+01    0.1216549873E+02    0.1395684928E+00    0    0
 -211    1   17   17    0    0   -0.7886317253E+01   -0.1102639484E+02   -0.8239442706E+00    0.1358211136E+02    0.1395679116E+00    0    0
  111    1   17   17    0    0   -0.1314823151E+01   -0.2036717892E+01   -0.1745862812E+00    0.2434271097E+01    0.1349639744E+00    0    0
</event>
<event>
   17 9999    1    0.9119999695E+02    0.7565275169E-02    0.1185000000E+00
   11   -1    0    0    0    0    0.0000000000E+00    0.0000000000E+00    0.8000000000E+02    0.8000000000E+02    0.5109988851E-03    0    0
  -11   -1    0    0    0    0    0.0000000000E+00    0.0000000000E+00   -0.8000000000E+02    0.8000000000E+02    0.5109988851E-03    0    0
  -24    2    1    2    0    0    0.1290549040E+01    0.7985181808E+01    0.1865292549E+02    0.8308145905E+02    0.8055538177E+02    0    0
   24    2    1    2    0    0   -0.1290549040E+01   -0.7985181808E+01   -0.1865292549E+02    0.7691854095E+02    0.7418289185E+02    0    0
   15    2    3    3    0    0   -0.2671157074E+02    0.3273830795E+02    0.1727303886E+02    0.4568172836E+02    0.1777029991E+01    0    0
  -16    1    3    3    0    0    0.2800212097E+02   -0.2475312424E+02    0.1379885793E+01    0.3739973450E+02    0.0000000000E+00    0    0
   16    1    4    4    0    0    0.5630964279E+01    0.3240013123E+02   -0.3007658243E+01    0.3302305603E+02    0.0000000000E+00    0    0
  -15    2    4    4    0    0   -0.6921513081E+01   -0.4038531494E+02   -0.1564526653E+02    0.4389548111E+02    0.1777029991E+01    0    0
   16    1    5    5    0    0   -0.9845420837E+01    0.1203330517E+02    0.6949857712E+01    0.1703036308E+02    0.1726334885E-03    0    0
*****    2    5    5    0    0   -0.1686720276E+02    0.2070628929E+02    0.1032386208E+02    0.2865316582E+02    0.1081119657E+01    0    0
 -211    1   10   10    0    0   -0.7673328876E+01    0.9536356926E+01    0.4638952255E+01    0.1309050941E+02    0.1395681947E+00    0    0
 -211    1   10   10    0    0   -0.2639414549E+01    0.3233719587E+01    0.1303795338E+01    0.4375249863E+01    0.1395680606E+00    0    0
  211    1   10   10    0    0   -0.6554458141E+01    0.7936212540E+01    0.4381114006E+01    0.1118740463E+02    0.1395678222E+00    0    0
  -16    1    8    8    0    0   -0.3611595869E+01   -0.2334774208E+02   -0.8559433937E+01    0.2512816429E+02    0.1726334885E-03    0    0
  323    2    8    8    0    0   -0.3310189724E+01   -0.1703915977E+02   -0.7086447716E+01    0.1876904297E+02    0.8768588305E+00    0    0
  211    1   15   15    0    0   -0.6708515286E+00   -0.2945668697E+01   -0.1457267880E+01    0.3357099295E+01    0.1395679116E+00    0    0
  310    1   15   15    0    0   -0.2639338255E+01   -0.1409349155E+02   -0.5629179478E+01    0.1541194344E+02    0.4977199733E+00    0    0
</event>
<event>
   20 9999    1    0.9119999695E+02    0.7565275169E-02    0.1185000000E+00
   11   -1    0    0    0    0    0.0000000000E+00    0.0000000000E+00    0.8000000000E+02    0.8000000000E+02    0.5109988851E-03    0    0
  -11   -1    0    0    0    0    0.0000000000E+00    0.0000000000E+00   -0.8000000000E+02    0.8000000000E+02    0.5109988851E-03    0    0
  -24    2    1    2    0    0    0.1858592033E+02    0.8371475220E+01    0.6885085106E+01    0.7450421906E+02    0.7132991028E+02    0    0
   24    2    1    2    0    0   -0.1870516014E+02   -0.8484757423E+01   -0.7232540607E+01    0.8511136627E+02    0.8227855682E+02    0    0
   22    1    1    2    0    0    0.1192401201E+00    0.1132820323E+00    0.3474552631E+00    0.3844166994E+00    0.0000000000E+00    0    0
   15    2    3    3    0    0    0.2212685394E+02   -0.2680050087E+02    0.1553766251E+02    0.3811090851E+02    0.1777029991E+01    0    0
  -16    1    3    3    0    0   -0.3540933609E+01    0.3517197418E+02   -0.8652577400E+01    0.3639331055E+02    0.0000000000E+00    0    0
   16    1    4    4    0    0   -0.3647256088E+02   -0.3641978455E+02   -0.6481476307E+01    0.5194860840E+02    0.0000000000E+00    0    0
  -15    2    4    4    0    0    0.1776739883E+02    0.2793502998E+02   -0.7510639429E+00    0.3316275406E+02    0.1777029991E+01    0    0
   16    1    6    6    0    0    0.7730535507E+01   -0.8459828377E+01    0.4973254204E+01    0.1249252319E+02    0.3411968937E-03    0    0
*****    2    6    6    0    0    0.1439719009E+02   -0.1834172630E+02    0.1056501961E+02    0.2561988449E+02    0.1029969215E+01    0    0
 -211    1   11   11    0    0    0.2450562716E+01   -0.2901211977E+01    0.1895517111E+01    0.4246734142E+01    0.1395683885E+00    0    0
 -211    1   11   11    0    0    0.7482327461E+01   -0.9196142197E+01    0.5417577744E+01    0.1303548527E+02    0.1395680457E+00    0    0
  211    1   11   11    0    0    0.4464297771E+01   -0.6244369030E+01    0.3251923800E+01    0.8337660789E+01    0.1395678818E+00    0    0
  -16    1    9    9    0    0    0.1350506663E+01    0.2631709814E+01   -0.1739825159E+00    0.2963112354E+01    0.6080584135E-03    0    0
   24    2    9    9    0    0    0.1641759109E+02    0.2530441856E+02   -0.5771109462E+00    0.3020094490E+02    0.1383186817E+01    0    0
  111    1   16   16    0    0    0.8507404327E+01    0.1374841118E+02   -0.4593986571E+00    0.1617479515E+02    0.1349635422E+00    0    0
  111    1   16   16    0    0    0.2889239192E+00    0.5087330937E+00   -0.5107327830E-02    0.6004396677E+00    0.1349641979E+00    0    0
  111    1   16   16    0    0    0.5464446545E+01    0.7856035233E+01   -0.1279181540E+00    0.9571417809E+01    0.1349640191E+00    0    0
  211    1   16   16    0    0    0.2156818867E+01    0.3191240549E+01    0.1531315595E-01    0.3854295969E+01    0.1395679712E+00    0    0
</event>
<event>
   19 9999    1    0.9119999695E+02    0.7565275169E-02    0.1185000000E+00
   11   -1    0    0    0    0    0.0000000000E+00    0.0000000000E+00    0.8000000000E+02    0.8000000000E+02    0.5109988851E-03    0    0
  -11   -1    0    0    0    0    0.0000000000E+00    0.0000000000E+00   -0.8000000000E+02    0.8000000000E+02    0.5109988851E-03    0    0
  -24    2    1    2    0    0    0.1024870014E+02    0.3890536308E+01   -0.5214114189E+00    0.8073796082E+02    0.7998858643E+02    0    0
   24    2    1    2    0    0   -0.1024872303E+02   -0.3890581369E+01    0.5925952792E+00    0.7919085693E+02    0.7842619324E+02    0    0
   22    1    1    2    0    0    0.2300811320E-04    0.4492447260E-04   -0.7118389010E-01    0.7118391246E-01    0.0000000000E+00    0    0
   15    2    3    3    0    0   -0.2661462784E+02    0.2104890442E+02   -0.1557710838E+02    0.3737912369E+02    0.1777029991E+01    0    0
  -16    1    3    3    0    0    0.3686332703E+02   -0.1715836716E+02    0.1505569649E+02    0.4335883331E+02    0.0000000000E+00    0    0
   16    1    4    4    0    0   -0.4069457626E+02    0.1202340722E+01    0.1707971382E+02    0.4414986801E+02    0.0000000000E+00    0    0
  -15    2    4    4    0    0    0.3044585419E+02   -0.5092921734E+01   -0.1648711967E+02    0.3504098892E+02    0.1777029991E+01    0    0
   16    1    6    6    0    0   -0.1366976619E+01    0.1049521208E+01   -0.9645249248E+00    0.1974950075E+01    0.4184359568E-03    0    0
  -24    2    6    6    0    0   -0.2524870110E+02    0.2000021172E+02   -0.1461319733E+02    0.3540564728E+02    0.1583968401E+01    0    0
 -321    1   11   11    0    0   -0.1027335548E+02    0.7707564831E+01   -0.6062611103E+01    0.1421081734E+02    0.4936670959E+00    0    0
 -211    1   11   11    0    0   -0.1247793674E+02    0.1016536236E+02   -0.6786551476E+01    0.1746740532E+02    0.1395681798E+00    0    0
  211    1   11   11    0    0   -0.2497408867E+01    0.2127284765E+01   -0.1764034510E+01    0.3727423906E+01    0.1395680457E+00    0    0
  -16    1    9    9    0    0    0.6062321663E+01   -0.1431864500E+01   -0.3442658424E+01    0.7117153645E+01    0.3636589099E-03    0    0
   24    2    9    9    0    0    0.2438473129E+02   -0.3661258221E+01   -0.1304511070E+02    0.2792521477E+02    0.1273869157E+01    0    0
  211    1   16   16    0    0    0.8889308929E+01   -0.1614826798E+01   -0.5059882164E+01    0.1035612774E+02    0.1395685077E+00    0    0
  111    1   16   16    0    0    0.1348432732E+02   -0.1656658411E+01   -0.6676590919E+01    0.1513825226E+02    0.1349636167E+00    0    0
   22    1   16   16    0    0    0.2011094332E+01   -0.3897727430E+00   -0.1308636904E+01    0.2430833817E+01    0.1495049946E-03    0    0
</event>
<event>
   23 9999    1    0.9119999695E+02    0.7565275169E-02    0.1185000000E+00
   11   -1    0    0    0    0    0.0000000000E+00    0.0000000000E+00    0.8000000000E+02    0.8000000000E+02    0.5109988851E-03    0    0
  -11   -1    0    0    0    0    0.0000000000E+00    0.0000000000E+00   -0.8000000000E+02    0.8000000000E+02    0.5109988851E-03    0    0
  -24    2    1    2    0    0    0.4768993855E+01    0.1425748920E+02    0.4293815613E+01    0.7766352844E+02    0.7607343292E+02    0    0
   24    2    1    2    0    0   -0.4773282051E+01   -0.1426543522E+02   -0.4393085003E+01    0.8223480988E+02    0.8072780609E+02    0    0
   22    1    1    2    0    0    0.4510005470E-02    0.7967185229E-02    0.1002442390E+00    0.1006614342E+00    0.0000000000E+00    0    0
   22    1    1    2    0    0   -0.2217548317E-03   -0.2090861017E-04   -0.9747174918E-03    0.9998432361E-03    0.0000000000E+00    0    0
   15    2    3    3    0    0   -0.3310120392E+02    0.1596864796E+02   -0.8296917915E+01    0.3771848297E+02    0.1777029991E+01    0    0
  -16    1    3    3    0    0    0.3787019730E+02   -0.1711159348E+01    0.1259073353E+02    0.3994504166E+02    0.0000000000E+00    0    0
   16    1    4    4    0    0    0.2991669464E+02   -0.8366690636E+01    0.2212452888E+02    0.3813797379E+02    0.0000000000E+00    0    0
  -15    2    4    4    0    0   -0.3468997955E+02   -0.5898745060E+01   -0.2651761436E+02    0.4409683990E+02    0.1777029991E+01    0    0
   16    1    7    7    0    0   -0.8065574646E+01    0.3413096905E+01   -0.2080227375E+01    0.9001670837E+01    0.7780486339E-04    0    0
  -24    2    7    7    0    0   -0.2503693008E+02    0.1255618000E+02   -0.6217016697E+01    0.2871829796E+02    0.1258482933E+01    0    0
  111    1   12   12    0    0   -0.1255421543E+02    0.6855426311E+01   -0.3153019905E+01    0.1464803600E+02    0.1349648535E+00    0    0
  111    1   12   12    0    0   -0.2351056576E+01    0.1114345551E+01   -0.6564474702E+00    0.2686702728E+01    0.1349639744E+00    0    0
  111    1   12   12    0    0   -0.2631042719E+01    0.1165323019E+01   -0.5951355100E+00    0.2941558361E+01    0.1349640340E+00    0    0
 -211    1   12   12    0    0   -0.7500615597E+01    0.3421085596E+01   -0.1812414289E+01    0.8442001343E+01    0.1395679116E+00    0    0
  -16    1   10   10    0    0   -0.1029577374E+01   -0.2135289907E+00   -0.6237118244E+00    0.1222555041E+01    0.4422417260E-03    0    0
   24    2   10   10    0    0   -0.3366176605E+02   -0.5685447693E+01   -0.2589494514E+02    0.4287602234E+02    0.1538264751E+01    0    0
  211    1   18   18    0    0   -0.1232404900E+02   -0.1884914279E+01   -0.9497412682E+01    0.1567339897E+02    0.1395677179E+00    0    0
  211    1   18   18    0    0   -0.1627499580E+02   -0.2998793125E+01   -0.1265121937E+02    0.2083125114E+02    0.1395681798E+00    0    0
 -211    1   18   18    0    0   -0.2912417650E+01   -0.5747448206E+00   -0.2162576675E+01    0.3675421715E+01    0.1395680010E+00    0    0
  111    1   18   18    0    0   -0.9372676015E+00   -0.1428018212E+00   -0.7283655405E+00    0.1203160286E+01    0.1349640638E+00    0    0
  111    1   18   18    0    0   -0.1213037610E+01   -0.8419416845E-01   -0.8553726673E+00    0.1492791533E+01    0.1349641979E+00    0    0
</event>
<event>
   16 9999    1    0.9119999695E+02    0.7565275169E-02    0.1185000000E+00
   11   -1    0    0    0    0    0.0000000000E+00    0.0000000000E+00    0.8000000000E+02    0.8000000000E+02    0.5109988851E-03    0    0
  -11   -1    0    0    0    0    0.0000000000E+00    0.0000000000E+00   -0.8000000000E+02    0.8000000000E+02    0.5109988851E-03    0    0
  -24    2    1    2    0    0    0.3970096827E+01    0.5470209122E+00    0.5878751278E+01    0.8011914825E+02    0.7980261230E+02    0    0
   24    2    1    2    0    0   -0.3970096827E+01   -0.5470209122E+00   -0.5878559113E+01    0.7988066101E+02    0.7956318665E+02    0    0
   22    1    1    2    0    0    0.8313986832E-08   -0.3099339896E-08   -0.1920619543E-03    0.1920619543E-03    0.0000000000E+00    0    0
   15    2    3    3    0    0    0.1062561795E+00   -0.4169198513E+01    0.4262759781E+02    0.4286797714E+02    0.1777029991E+01    0    0
  -16    1    3    3    0    0    0.3863840580E+01    0.4716219425E+01   -0.3674884796E+02    0.3725117111E+02    0.0000000000E+00    0    0
   16    1    4    4    0    0   -0.1441585350E+02   -0.3567191315E+02   -0.1623335838E+02    0.4175912094E+02    0.0000000000E+00    0    0
  -15    2    4    4    0    0    0.1044575596E+02    0.3512489319E+02    0.1035479927E+02    0.3812153625E+02    0.1777029991E+01    0    0
   16    1    6    6    0    0    0.7968163490E+00   -0.3017014027E+01    0.2625737572E+02    0.2644214630E+02    0.6103515625E-04    0    0
 -211    1    6    6    0    0   -0.6905559897E+00   -0.1152348638E+01    0.1637190247E+02    0.1642752075E+02    0.1395679712E+00    0    0
  -16    1    9    9    0    0    0.5879192829E+01    0.1880704308E+02    0.5419260979E+01    0.2043619728E+02    0.6224389072E-03    0    0
   24    2    9    9    0    0    0.4566974163E+01    0.1631923103E+02    0.4935945988E+01    0.1768683815E+02    0.1134092927E+01    0    0
  211    1   13   13    0    0    0.1532191396E+01    0.6427746296E+01    0.1918848991E+01    0.6882223129E+01    0.1395679712E+00    0    0
  111    1   13   13    0    0    0.1681582928E+01    0.6470133305E+01    0.2162337065E+01    0.7027393341E+01    0.1349639744E+00    0    0
   22    1   13   13    0    0    0.1353199959E+01    0.3421351671E+01    0.8547599316E+00    0.3777222872E+01    0.1495049946E-03    0    0
</event>
<event>
   20 9999    1    0.9119999695E+02    0.7565275169E-02    0.1185000000E+00
   11   -1    0    0    0    0    0.0000000000E+00    0.0000000000E+00    0.8000000000E+02    0.8000000000E+02    0.5109988851E-03    0    0
  -11   -1    0    0    0    0    0.0000000000E+00    0.0000000000E+00   -0.8000000000E+02    0.8000000000E+02    0.5109988851E-03    0    0
  -24    2    1    2    0    0   -0.1975996208E+02    0.1701663494E+01    0.2396506691E+02    0.8615814209E+02    0.8034643555E+02    0    0
   24    2    1    2    0    0    0.1975996208E+02   -0.1701663494E+01   -0.2396590805E+02    0.7384101868E+02    0.6696849823E+02    0    0
   22    1    1    2    0    0    0.7421061987E-08    0.4732722214E-08    0.8397083730E-03    0.8397083730E-03    0.0000000000E+00    0    0
   15    2    3    3    0    0   -0.2273344803E+02    0.3888520813E+02    0.9009652138E+01    0.4596956253E+02    0.1777029991E+01    0    0
  -16    1    3    3    0    0    0.2973484278E+01   -0.3718354416E+02    0.1495541573E+02    0.4018857956E+02    0.0000000000E+00    0    0
   16    1    4    4    0    0    0.4884129047E+01    0.3126996994E+02   -0.4156929970E+01    0.3192093086E+02    0.0000000000E+00    0    0
  -15    2    4    4    0    0    0.1444071960E+02   -0.3291127014E+02   -0.1834252548E+02    0.4038925552E+02    0.1777029991E+01    0    0
   22    1    4    4    0    0    0.4351131916E+00   -0.6036474928E-01   -0.1466452241E+01    0.1530832887E+01    0.0000000000E+00    0    0
   16    1    6    6    0    0   -0.2149319649E-01    0.6942050904E-01   -0.2311268076E-01    0.7626023144E-01    0.5149699864E-03    0    0
  -24    2    6    6    0    0   -0.2271284866E+02    0.3881731796E+02    0.9033119202E+01    0.4589511108E+02    0.1451330543E+01    0    0
 -211    1   12   12    0    0   -0.1224598503E+02    0.2150447655E+02    0.5230688572E+01    0.2529399490E+02    0.1395679563E+00    0    0
  130    1   12   12    0    0   -0.6689655304E+01    0.1086830139E+02    0.2602020741E+01    0.1303417492E+02    0.4977199733E+00    0    0
  111    1   12   12    0    0   -0.3777208328E+01    0.6444538593E+01    0.1200410008E+01    0.7566940308E+01    0.1349640638E+00    0    0
  -16    1    9    9    0    0    0.5696100712E+01   -0.1250488758E+02   -0.6618489742E+01    0.1525195694E+02    0.2589502255E-03    0    0
   24    2    9    9    0    0    0.8745210648E+01   -0.2040773010E+02   -0.1172478580E+02    0.2513895226E+02    0.1241885781E+01    0    0
  211    1   17   17    0    0    0.1220449448E+01   -0.2578752756E+01   -0.1219025254E+01    0.3105634212E+01    0.1395676583E+00    0    0
  111    1   17   17    0    0    0.2023741961E+01   -0.5457337856E+01   -0.3408180475E+01    0.6746256351E+01    0.1349642873E+00    0    0
   22    1   17   17    0    0    0.5501020432E+01   -0.1237164116E+02   -0.7097581863E+01    0.1528706646E+02    0.1141863249E-03    0    0
</event>
<event>
   17 9999    1    0.9119999695E+02    0.7565275169E-02    0.1185000000E+00
   11   -1    0    0    0    0    0.0000000000E+00    0.0000000000E+00    0.8000000000E+02    0.8000000000E+02    0.5109988851E-03    0    0
  -11   -1    0    0    0    0    0.0000000000E+00    0.0000000000E+00   -0.8000000000E+02    0.8000000000E+02    0.5109988851E-03    0    0
  -24    2    1    2    0    0    0.2923640251E+02   -0.6651223183E+01    0.1376531601E+02    0.7574105835E+02    0.6817783356E+02    0    0
   24    2    1    2    0    0   -0.2923640251E+02    0.6651223183E+01   -0.1376531601E+02    0.8425894165E+02    0.7753115082E+02    0    0
   15    2    3    3    0    0    0.5149831009E+02   -0.8139607430E+01    0.9723332405E+01    0.5306628036E+02    0.1777029991E+01    0    0
  -16    1    3    3    0    0   -0.2226190758E+02    0.1488383770E+01    0.4041983128E+01    0.2267477417E+02    0.0000000000E+00    0    0
   16    1    4    4    0    0   -0.1463899040E+02    0.3427125168E+02    0.1647273445E+02    0.4074517822E+02    0.0000000000E+00    0    0
  -15    2    4    4    0    0   -0.1459741306E+02   -0.2762002754E+02   -0.3023805046E+02    0.4351376724E+02    0.1777029991E+01    0    0
   16    1    5    5    0    0    0.3235458374E+02   -0.5474599361E+01    0.6549807072E+01    0.3346177292E+02    0.1220703125E-03    0    0
 -323    2    5    5    0    0    0.1914575386E+02   -0.2665328026E+01    0.3173908234E+01    0.1960659599E+02    0.8252680898E+00    0    0
 -211    1   10   10    0    0    0.6488845825E+01   -0.7838196754E+00    0.8658850193E+00    0.6594598770E+01    0.1395678520E+00    0    0
  310    1   10   10    0    0    0.1265690613E+02   -0.1881507874E+01    0.2308022738E+01    0.1301199627E+02    0.4977200329E+00    0    0
  -16    1    8    8    0    0   -0.6275913119E+00   -0.1527096272E+01   -0.1762695432E+01    0.2415158272E+01    0.5106567405E-03    0    0
   24    2    8    8    0    0   -0.1397039509E+02   -0.2609401703E+02   -0.2847654343E+02    0.4110031891E+02    0.1501010060E+01    0    0
  221    1   14   14    0    0   -0.9314215660E+01   -0.1744141960E+02   -0.1898554420E+02    0.2741732597E+02    0.5487999916E+00    0    0
  211    1   14   14    0    0   -0.8679821491E+00   -0.2200392008E+01   -0.2438371897E+01    0.3400037527E+01    0.1395677030E+00    0    0
  111    1   14   14    0    0   -0.3788197041E+01   -0.6452206135E+01   -0.7052626133E+01    0.1028295422E+02    0.1349640638E+00    0    0
</event>
<event>
   18 9999    1    0.9119999695E+02    0.7565275169E-02    0.1185000000E+00
   11   -1    0    0    0    0    0.0000000000E+00    0.0000000000E+00    0.8000000000E+02    0.8000000000E+02    0.5109988851E-03    0    0
  -11   -1    0    0    0    0    0.0000000000E+00    0.0000000000E+00   -0.8000000000E+02    0.8000000000E+02    0.5109988851E-03    0    0
  -24    2    1    2    0    0   -0.6335114956E+01    0.3815303087E+01    0.5183063030E+01    0.7954128265E+02    0.7902696228E+02    0    0
   24    2    1    2    0    0    0.6335127354E+01   -0.3815377712E+01   -0.5222511292E+01    0.8041437531E+02    0.7990310669E+02    0    0
   22    1    1    2    0    0    0.5865845196E-05    0.2052412492E-04    0.4189452529E-01    0.4189452901E-01    0.0000000000E+00    0    0
   22    1    1    2    0    0   -0.1796917786E-04    0.5404269177E-04   -0.2446084749E-02    0.2446747618E-02    0.0000000000E+00    0    0
   15    2    3    3    0    0   -0.7728048801E+01    0.1395633793E+02    0.3657477856E+01    0.1646321106E+02    0.1777029991E+01    0    0
  -16    1    3    3    0    0    0.1674002075E+02   -0.3175993347E+02    0.5326591492E+01    0.3629454041E+02    0.0000000000E+00    0    0
   22    1    3    3    0    0   -0.1534708595E+02    0.2161889839E+02   -0.3801006079E+01    0.2678353119E+02    0.0000000000E+00    0    0
   16    1    4    4    0    0    0.9389216423E+01   -0.2844335318E+01    0.3687496567E+02    0.3815771103E+02    0.0000000000E+00    0    0
  -15    2    4    4    0    0   -0.3054089308E+01   -0.9710423350E+00   -0.4209747696E+02    0.4225666809E+02    0.1777029991E+01    0    0
   16    1    7    7    0    0   -0.4644110680E+01    0.7906771183E+01    0.1316599011E+01    0.9263819695E+01    0.2441406250E-03    0    0
 -321    1    7    7    0    0   -0.3084249735E+01    0.6050132751E+01    0.2341033459E+01    0.7200061798E+01    0.4936670065E+00    0    0
  -16    1   11   11    0    0   -0.1272588849E+01   -0.4543105662E+00   -0.1527827835E+02    0.1533791542E+02    0.4228639591E-03    0    0
   24    2   11   11    0    0   -0.1781620502E+01   -0.5167699456E+00   -0.2682085800E+02    0.2692041397E+02    0.1381703377E+01    0    0
  111    1   15   15    0    0   -0.2106672078E+00   -0.3461607173E-01   -0.8771024704E+01    0.8774661064E+01    0.1349635720E+00    0    0
  111    1   15   15    0    0   -0.5046780705E+00   -0.3074078858E+00   -0.8639384270E+01    0.8660622597E+01    0.1349641830E+00    0    0
  321    1   15   15    0    0   -0.1066275358E+01   -0.1747460514E+00   -0.9410449028E+01    0.9485132217E+01    0.4936670661E+00    0    0
</event>
<event>
   18 9999    1    0.9119999695E+02    0.7565275169E-02    0.1185000000E+00
   11   -1    0    0    0    0    0.0000000000E+00    0.0000000000E+00    0.8000000000E+02    0.8000000000E+02    0.5109988851E-03    0    0
  -11   -1    0    0    0    0    0.0000000000E+00    0.0000000000E+00   -0.8000000000E+02    0.8000000000E+02    0.5109988851E-03    0    0
  -24    2    1    2    0    0   -0.9398265928E-01   -0.1375480747E+02    0.1509143233E+01    0.8157927704E+02    0.8039712524E+02    0    0
   24    2    1    2    0    0    0.5382950604E-01    0.1373736095E+02   -0.1525611281E+01    0.7836651611E+02    0.7713796234E+02    0    0
   22    1    1    2    0    0    0.3998374939E-01    0.1652901433E-01    0.5999596324E-02    0.4367955774E-01    0.0000000000E+00    0    0
   22    1    1    2    0    0    0.1694123202E-03    0.9176618187E-03    0.7278835867E-02    0.7338409778E-02    0.0000000000E+00    0    0
   22    1    1    2    0    0   -0.9168846127E-08   -0.7192551266E-07    0.3189617768E-02    0.3189617768E-02    0.0000000000E+00    0    0
   15    2    3    3    0    0   -0.3411943436E+02    0.1470420265E+02    0.1374494076E+01    0.3722091293E+02    0.1777029991E+01    0    0
  -16    1    3    3    0    0    0.3402545166E+02   -0.2845901108E+02    0.1346491575E+00    0.4435836792E+02    0.0000000000E+00    0    0
   16    1    4    4    0    0    0.1153778172E+02    0.2852048492E+02    0.2915261078E+02    0.4238411331E+02    0.0000000000E+00    0    0
  -15    2    4    4    0    0   -0.1148395252E+02   -0.1478312492E+02   -0.3067822075E+02    0.3598239899E+02    0.1777029991E+01    0    0
   16    1    8    8    0    0   -0.2530586243E+02    0.1064912128E+02    0.2797939181E+00    0.2745666885E+02    0.2441406250E-03    0    0
 -211    1    8    8    0    0   -0.8814915657E+01    0.4055660725E+01    0.1094754338E+01    0.9765709877E+01    0.1395679563E+00    0    0
  -16    1   11   11    0    0   -0.7569170952E+01   -0.9158905029E+01   -0.1939614868E+02    0.2274617386E+02    0.1704277674E-03    0    0
   24    2   11   11    0    0   -0.3915233135E+01   -0.5624800682E+01   -0.1128327942E+02    0.1323763943E+02    0.9773770571E+00    0    0
  211    1   15   15    0    0   -0.9092473984E+00   -0.1530570507E+01   -0.2926912308E+01    0.3428654432E+01    0.1395676285E+00    0    0
  111    1   15   15    0    0   -0.1165274858E+01   -0.2111966848E+01   -0.4328313351E+01    0.4956892490E+01    0.1349639893E+00    0    0
   22    1   15   15    0    0   -0.1840711474E+01   -0.1982264280E+01   -0.4028055668E+01    0.4852094650E+01    0.1614838402E-03    0    0
</event>
<event>
   20 9999    1    0.9119999695E+02    0.7565275169E-02    0.1185000000E+00
   11   -1    0    0    0    0    0.0000000000E+00    0.0000000000E+00    0.8000000000E+02    0.8000000000E+02    0.5109988851E-03    0    0
  -11   -1    0    0    0    0    0.0000000000E+00    0.0000000000E+00   -0.8000000000E+02    0.8000000000E+02    0.5109988851E-03    0    0
  -24    2    1    2    0    0    0.1661384392E+02    0.6274631500E+01    0.4750096321E+01    0.8311704254E+02    0.8105854797E+02    0    0
   24    2    1    2    0    0   -0.1661384773E+02   -0.6274627209E+01   -0.4748278618E+01    0.7688114166E+02    0.7465100098E+02    0    0
   22    1    1    2    0    0    0.4033874120E-05   -0.4156930572E-05   -0.1817613258E-02    0.1817622455E-02    0.0000000000E+00    0    0
   15    2    3    3    0    0    0.1414838791E+02   -0.2824862289E+02    0.2731301498E+02    0.4180096054E+02    0.1777029991E+01    0    0
  -16    1    3    3    0    0    0.2465456247E+01    0.3452325439E+02   -0.2256291771E+02    0.4131608582E+02    0.0000000000E+00    0    0
   16    1    4    4    0    0    0.1435984325E+02   -0.1657720757E+02    0.2459461784E+02    0.3295306015E+02    0.0000000000E+00    0    0
  -15    2    4    4    0    0   -0.3097369194E+02    0.1030258083E+02   -0.2934289551E+02    0.4392807770E+02    0.1777029991E+01    0    0
   16    1    6    6    0    0    0.1006093860E+01   -0.2137550116E+01    0.2388275862E+01    0.3359346151E+01    0.2441406250E-03    0    0
  -24    2    6    6    0    0    0.1314285088E+02   -0.2611218452E+02    0.2492581367E+02    0.3844325638E+02    0.1416751742E+01    0    0
 -211    1   11   11    0    0    0.7145148277E+01   -0.1419153404E+02    0.1301549911E+02    0.2053960800E+02    0.1395678520E+00    0    0
 -211    1   11   11    0    0    0.2942574263E+01   -0.6046571732E+01    0.6215512276E+01    0.9158157349E+01    0.1395680457E+00    0    0
  211    1   11   11    0    0    0.2277859926E+01   -0.4669049263E+01    0.4458357811E+01    0.6847269535E+01    0.1395680159E+00    0    0
  111    1   11   11    0    0    0.7772691846E+00   -0.1205030084E+01    0.1236445189E+01    0.1898224592E+01    0.1349640191E+00    0    0
  -16    1    9    9    0    0   -0.2601471841E+00    0.1275155097E+00   -0.2166292816E+00    0.3617528081E+00    0.2735965245E-03    0    0
   24    2    9    9    0    0   -0.3071476364E+02    0.1017547035E+02   -0.2912742233E+02    0.4356805420E+02    0.1682806253E+01    0    0
  321    1   17   17    0    0   -0.6642563820E+01    0.2059814692E+01   -0.5899428844E+01    0.9133096695E+01    0.4936670363E+00    0    0
  211    1   17   17    0    0   -0.1461686134E+02    0.4952406883E+01   -0.1378188705E+02    0.2069151688E+02    0.1395681351E+00    0    0
 -321    1   17   17    0    0   -0.9455338478E+01    0.3163249016E+01   -0.9446105957E+01    0.1374344158E+02    0.4936670065E+00    0    0
</event>
<event>
   19 9999    1    0.9119999695E+02    0.7565275169E-02    0.1185000000E+00
   11   -1    0    0    0    0    0.0000000000E+00    0.0000000000E+00    0.8000000000E+02    0.8000000000E+02    0.5109988851E-03    0    0
  -11   -1    0    0    0    0    0.0000000000E+00    0.0000000000E+00   -0.8000000000E+02    0.8000000000E+02    0.5109988851E-03    0    0
  -24    2    1    2    0    0   -0.3269503784E+02    0.6592240334E+01   -0.7363332748E+01    0.8798360443E+02    0.8108312225E+02    0    0
   24    2    1    2    0    0    0.3269503784E+02   -0.6592240334E+01    0.7363332748E+01    0.7201639557E+02    0.6340125656E+02    0    0
   15    2    3    3    0    0   -0.3572556686E+02    0.1442601871E+02    0.3051773643E+02    0.4918247604E+02    0.1777029991E+01    0    0
  -16    1    3    3    0    0    0.3030527115E+01   -0.7833778858E+01   -0.3788106918E+02    0.3880112839E+02    0.0000000000E+00    0    0
   16    1    4    4    0    0   -0.7982828140E+01    0.1906863594E+02   -0.6942810059E+01    0.2180690384E+02    0.0000000000E+00    0    0
  -15    2    4    4    0    0    0.4067786789E+02   -0.2566087723E+02    0.1430614281E+02    0.5020949173E+02    0.1777029991E+01    0    0
   16    1    5    5    0    0   -0.1860984993E+02    0.8075349808E+01    0.1635143280E+02    0.2605584717E+02    0.3343033313E-03    0    0
  -24    2    5    5    0    0   -0.1711712074E+02    0.6351237774E+01    0.1416750526E+02    0.2312856674E+02    0.9372056127E+00    0    0
  111    1   10   10    0    0   -0.5150254250E+01    0.1663042545E+01    0.4280339718E+01    0.6901474953E+01    0.1349640638E+00    0    0
  111    1   10   10    0    0   -0.5324038029E+01    0.2030049086E+01    0.4475081921E+01    0.7246451378E+01    0.1349640936E+00    0    0
  111    1   10   10    0    0   -0.2537225008E+01    0.8658082485E+00    0.2075610876E+01    0.3393156290E+01    0.1349639744E+00    0    0
 -211    1   10   10    0    0   -0.4105603218E+01    0.1792337298E+01    0.3336471796E+01    0.5587483406E+01    0.1395679265E+00    0    0
  -16    1    8    8    0    0    0.2096740246E+01   -0.1522158742E+01    0.7680937648E+00    0.2702453613E+01    0.5975817912E-03    0    0
   24    2    8    8    0    0    0.3858272552E+02   -0.2413972664E+02    0.1353861237E+02    0.4750901031E+02    0.1568131208E+01    0    0
  321    1   16   16    0    0    0.1424026012E+02   -0.8998897552E+01    0.4724361897E+01    0.1750224113E+02    0.4936670065E+00    0    0
  111    1   16   16    0    0    0.7942194462E+01   -0.5132541656E+01    0.2608721495E+01    0.9810458183E+01    0.1349636912E+00    0    0
  130    1   16   16    0    0    0.1640027237E+02   -0.1000828838E+02    0.6205528736E+01    0.2019631195E+02    0.4977200329E+00    0    0
</event>
<event>
   20 9999    1    0.9119999695E+02    0.7565275169E-02    0.1185000000E+00
   11   -1    0    0    0    0    0.0000000000E+00    0.0000000000E+00    0.8000000000E+02    0.8000000000E+02    0.5109988851E-03    0    0
  -11   -1    0    0    0    0    0.0000000000E+00    0.0000000000E+00   -0.8000000000E+02    0.8000000000E+02    0.5109988851E-03    0    0
  -24    2    1    2    0    0   -0.7152191997E+00    0.1753439713E+02    0.1630621254E+00    0.8247414398E+02    0.8058530426E+02    0    0
   24    2    1    2    0    0    0.7152202129E+00   -0.1753436661E+02   -0.1624755114E+00    0.7752526855E+02    0.7551274872E+02    0    0
   22    1    1    2    0    0   -0.8870176771E-06   -0.2612659500E-05   -0.4291253863E-03    0.4291342630E-03    0.0000000000E+00    0    0
   22    1    1    2    0    0   -0.1358972810E-06   -0.2705134284E-04   -0.1574837515E-03    0.1597902447E-03    0.0000000000E+00    0    0
   15    2    3    3    0    0    0.3513704300E+02    0.1518833637E+02    0.1802739334E+02    0.4234905243E+02    0.1777029991E+01    0    0
  -16    1    3    3    0    0   -0.3585226440E+02    0.2346060514E+01   -0.1786433220E+02    0.4012509537E+02    0.0000000000E+00    0    0
   16    1    4    4    0    0    0.3460354996E+02    0.3616750002E+01   -0.1027872753E+02    0.3627862930E+02    0.0000000000E+00    0    0
  -15    2    4    4    0    0   -0.3388833237E+02   -0.2115111732E+02    0.1011625195E+02    0.4124663925E+02    0.1777029991E+01    0    0
   16    1    7    7    0    0    0.1265073538E+01    0.7142581344E+00    0.7924780846E+00    0.1654870868E+01    0.5692980485E-03    0    0
  -24    2    7    7    0    0    0.3387335205E+02    0.1447467613E+02    0.1723562431E+02    0.4069584656E+02    0.1471368313E+01    0    0
  221    1   12   12    0    0    0.1554075336E+02    0.6901834011E+01    0.8258216858E+01    0.1891162872E+02    0.5487999320E+00    0    0
 -211    1   12   12    0    0    0.1316825509E+01    0.6777807474E+00    0.6280347109E+00    0.1614720702E+01    0.1395679116E+00    0    0
  111    1   12   12    0    0    0.1701577377E+02    0.6895061016E+01    0.8349372864E+01    0.2016949844E+02    0.1349643171E+00    0    0
  -16    1   10   10    0    0   -0.6745212555E+01   -0.4575040340E+01    0.2170608044E+01    0.8434477806E+01    0.5526968744E-03    0    0
   24    2   10   10    0    0   -0.2714445114E+02   -0.1657690811E+02    0.7946041107E+01    0.3281378174E+02    0.1410511494E+01    0    0
  211    1   17   17    0    0   -0.6913825035E+01   -0.4316468239E+01    0.2349875450E+01    0.8483764648E+01    0.1395679265E+00    0    0
  130    1   17   17    0    0   -0.1295947075E+02   -0.8077654839E+01    0.3938252211E+01    0.1577827454E+02    0.4977200329E+00    0    0
  111    1   17   17    0    0   -0.7271157742E+01   -0.4182786465E+01    0.1657914400E+01    0.8551744461E+01    0.1349640638E+00    0    0
</event>
<event>
   22 9999    1    0.9119999695E+02    0.7565275169E-02    0.1185000000E+00
   11   -1    0    0    0    0    0.0000000000E+00    0.0000000000E+00    0.8000000000E+02    0.8000000000E+02    0.5109988851E-03    0    0
  -11   -1    0    0    0    0    0.0000000000E+00    0.0000000000E+00   -0.8000000000E+02    0.8000000000E+02    0.5109988851E-03    0    0
  -24    2    1    2    0    0    0.1683363318E+01   -0.5610830784E+01    0.1384767818E+02    0.7854245758E+02    0.7708984375E+02    0    0
   24    2    1    2    0    0   -0.1687331438E+01    0.5607717037E+01   -0.1386934280E+02    0.8143530273E+02    0.8003159332E+02    0    0
   22    1    1    2    0    0    0.3968065139E-02    0.3113754326E-02    0.2166480944E-01    0.2224421129E-01    0.0000000000E+00    0    0
   15    2    3    3    0    0    0.2100048256E+02    0.1920585823E+02    0.3149151421E+02    0.4248244858E+02    0.1777029991E+01    0    0
  -16    1    3    3    0    0   -0.1931711769E+02   -0.2481668854E+02   -0.1764383698E+02    0.3606000519E+02    0.0000000000E+00    0    0
   16    1    4    4    0    0    0.2957608032E+02   -0.9170797467E-01    0.1941726303E+02    0.3538054657E+02    0.0000000000E+00    0    0
  -15    2    4    4    0    0   -0.3126341057E+02    0.5699424744E+01   -0.3328660583E+02    0.4605475235E+02    0.1777029991E+01    0    0
   16    1    6    6    0    0    0.3599378109E+01    0.3231306076E+01    0.5293319702E+01    0.7170501709E+01    0.2642899744E-04    0    0
  -24    2    6    6    0    0    0.1740192986E+02    0.1597530746E+02    0.2619943428E+02    0.3531362152E+02    0.1613620400E+01    0    0
 -211    1   11   11    0    0    0.2319850445E+01    0.1885241866E+01    0.3415169001E+01    0.4540781975E+01    0.1395679861E+00    0    0
 -211    1   11   11    0    0    0.2629461288E+01    0.2206732512E+01    0.3972527981E+01    0.5252065659E+01    0.1395680010E+00    0    0
 -211    1   11   11    0    0    0.3098052263E+01    0.2766232729E+01    0.4267015934E+01    0.5956246853E+01    0.1395679712E+00    0    0
  211    1   11   11    0    0    0.3708318233E+01    0.3388138294E+01    0.5615520477E+01    0.7535559177E+01    0.1395680010E+00    0    0
  211    1   11   11    0    0    0.7868617773E+00    0.6557103395E+00    0.1134790659E+01    0.1535036325E+01    0.1395680010E+00    0    0
  111    1   11   11    0    0    0.4859386444E+01    0.5073252201E+01    0.7794410229E+01    0.1049392986E+02    0.1349638253E+00    0    0
  -16    1    9    9    0    0   -0.1555026412E+01    0.3615419567E+00   -0.1518834949E+01    0.2203560591E+01    0.4577636719E-03    0    0
   24    2    9    9    0    0   -0.2970961380E+02    0.5338107109E+01   -0.3176908112E+02    0.4385300446E+02    0.1629393816E+01    0    0
  130    1   19   19    0    0   -0.1173821545E+02    0.2262295008E+01   -0.1314872932E+02    0.1777752686E+02    0.4977200031E+00    0    0
  211    1   19   19    0    0   -0.2023324490E+01    0.3147381544E+00   -0.2356642246E+01    0.3125082970E+01    0.1395678669E+00    0    0
  130    1   19   19    0    0   -0.1594807625E+02    0.2761074305E+01   -0.1626371002E+02    0.2295039558E+02    0.4977199733E+00    0    0
</event>
<event>
   20 9999    1    0.9119999695E+02    0.7565275169E-02    0.1185000000E+00
   11   -1    0    0    0    0    0.0000000000E+00    0.0000000000E+00    0.8000000000E+02    0.8000000000E+02    0.5109988851E-03    0    0
  -11   -1    0    0    0    0    0.0000000000E+00    0.0000000000E+00   -0.8000000000E+02    0.8000000000E+02    0.5109988851E-03    0    0
  -24    2    1    2    0    0   -0.2623430634E+02   -0.5859187126E+01    0.6294851303E+01    0.8479052734E+02    0.8017006683E+02    0    0
   24    2    1    2    0    0    0.2623427773E+02    0.5859045506E+01   -0.6290640831E+01    0.7520526123E+02    0.6995494080E+02    0    0
   22    1    1    2    0    0    0.2806451812E-04    0.1415266452E-03   -0.4210433457E-02    0.4212905187E-02    0.0000000000E+00    0    0
   15    2    3    3    0    0   -0.3403242493E+02   -0.6225805879E+00    0.3839674759E+02    0.5134259033E+02    0.1777029991E+01    0    0
  -16    1    3    3    0    0    0.7798119545E+01   -0.5236606598E+01   -0.3210189438E+02    0.3344793320E+02    0.0000000000E+00    0    0
   16    1    4    4    0    0    0.6289647102E+01    0.2757540131E+02    0.2081284332E+02    0.3511604691E+02    0.0000000000E+00    0    0
  -15    2    4    4    0    0    0.1994463158E+02   -0.2171635628E+02   -0.2710348320E+02    0.4008921432E+02    0.1777029991E+01    0    0
   16    1    6    6    0    0   -0.2356577396E+01   -0.4816704243E-01    0.3009071827E+01    0.3822340965E+01    0.4608053132E-03    0    0
  -24    2    6    6    0    0   -0.3167718697E+02   -0.5744380355E+00    0.3538918304E+02    0.4752227020E+02    0.1482388377E+01    0    0
 -211    1   11   11    0    0   -0.7861627102E+01   -0.2618821152E-01    0.8802948952E+01    0.1180327225E+02    0.1395680904E+00    0    0
 -211    1   11   11    0    0   -0.4378345490E+01    0.2091137134E-01    0.4778370380E+01    0.6482487679E+01    0.1395680010E+00    0    0
  211    1   11   11    0    0   -0.8602862358E+01   -0.2174329907E+00    0.9911579132E+01    0.1312689590E+02    0.1395679265E+00    0    0
  111    1   11   11    0    0   -0.6122496128E+01   -0.4551469684E+00    0.7012825489E+01    0.9321483612E+01    0.1349639446E+00    0    0
  111    1   11   11    0    0   -0.4711855412E+01    0.1034186855E+00    0.4883460999E+01    0.6788127899E+01    0.1349640936E+00    0    0
  -16    1    9    9    0    0    0.7294408977E-02   -0.2602465684E-03    0.1866824552E-01    0.2004469559E-01    0.1224274165E-03    0    0
  323    2    9    9    0    0    0.1993812180E+02   -0.2171694946E+02   -0.2712321854E+02    0.4007074738E+02    0.9171496630E+00    0    0
  211    1   18   18    0    0    0.6573912621E+01   -0.7218578339E+01   -0.9390117645E+01    0.1354688072E+02    0.1395679563E+00    0    0
  130    1   18   18    0    0    0.1336420822E+02   -0.1449837208E+02   -0.1773310089E+02    0.2652386475E+02    0.4977200925E+00    0    0
</event>
<event>
   20 9999    1    0.9119999695E+02    0.7565275169E-02    0.1185000000E+00
   11   -1    0    0    0    0    0.0000000000E+00    0.0000000000E+00    0.8000000000E+02    0.8000000000E+02    0.5109988851E-03    0    0
  -11   -1    0    0    0    0    0.0000000000E+00    0.0000000000E+00   -0.8000000000E+02    0.8000000000E+02    0.5109988851E-03    0    0
  -24    2    1    2    0    0   -0.1016010189E+02    0.1441983223E+02    0.3982421875E+02    0.9099578094E+02    0.7989433289E+02    0    0
   24    2    1    2    0    0    0.1014532280E+02   -0.1460369492E+02   -0.3836179733E+02    0.6753012848E+02    0.5265448761E+02    0    0
   22    1    1    2    0    0    0.1477907784E-01    0.1838619858E+00   -0.1452055454E+01    0.1463724256E+01    0.0000000000E+00    0    0
   22    1    1    2    0    0    0.2036810258E-06    0.3770511725E-07   -0.1036658511E-01    0.1036658511E-01    0.0000000000E+00    0    0
   15    2    3    3    0    0    0.1094853497E+02    0.2733438683E+02    0.5468243790E+02    0.6213184357E+02    0.1777029991E+01    0    0
  -16    1    3    3    0    0   -0.2110863686E+02   -0.1291455364E+02   -0.1485821819E+02    0.2886393738E+02    0.0000000000E+00    0    0
   16    1    4    4    0    0    0.1466794014E+02    0.1299507236E+02    0.5184964538E+00    0.1960329628E+02    0.0000000000E+00    0    0
  -15    2    4    4    0    0   -0.4522617817E+01   -0.2759876633E+02   -0.3888029480E+02    0.4792683029E+02    0.1777029991E+01    0    0
   16    1    7    7    0    0    0.3036421776E+01    0.7662902355E+01    0.1648705864E+02    0.1843266106E+02    0.0000000000E+00    0    0
  -24    2    7    7    0    0    0.7912543774E+01    0.1967255974E+02    0.3819753265E+02    0.4370162582E+02    0.1078326941E+01    0    0
 -321    1   12   12    0    0    0.4505077839E+01    0.1072816467E+02    0.2073804092E+02    0.2378443336E+02    0.4936671257E+00    0    0
  130    1   12   12    0    0    0.3407466888E+01    0.8944396973E+01    0.1745949554E+02    0.1991719818E+02    0.4977200925E+00    0    0
  -16    1   10   10    0    0   -0.1585023642E+01   -0.7675606728E+01   -0.1009837055E+02    0.1278297043E+02    0.1726334885E-03    0    0
   24    2   10   10    0    0   -0.2937772274E+01   -0.1992424774E+02   -0.2878345490E+02    0.3514574814E+02    0.1063115954E+01    0    0
  211    1   16   16    0    0   -0.7387884855E+00   -0.4718647480E+01   -0.6825188637E+01    0.8331513405E+01    0.1395681202E+00    0    0
  211    1   16   16    0    0   -0.3726024926E+00   -0.2443803310E+01   -0.3261538744E+01    0.4094889641E+01    0.1395685524E+00    0    0
 -211    1   16   16    0    0   -0.8579592109E+00   -0.7807009220E+01   -0.1156508827E+02    0.1398056698E+02    0.1395677477E+00    0    0
  111    1   16   16    0    0   -0.9684214592E+00   -0.4954782486E+01   -0.7131631851E+01    0.8738770485E+01    0.1349639595E+00    0    0
</event>
<event>
   18 9999    1    0.9119999695E+02    0.7565275169E-02    0.1185000000E+00
   11   -1    0    0    0    0    0.0000000000E+00    0.0000000000E+00    0.8000000000E+02    0.8000000000E+02    0.5109988851E-03    0    0
  -11   -1    0    0    0    0    0.0000000000E+00    0.0000000000E+00   -0.8000000000E+02    0.8000000000E+02    0.5109988851E-03    0    0
  -24    2    1    2    0    0    0.4399971962E+01    0.5099852085E+01    0.1287353611E+02    0.8539901733E+02    0.8415399933E+02    0    0
   24    2    1    2    0    0   -0.4399971962E+01   -0.5099852085E+01   -0.1287353611E+02    0.7460098267E+02    0.7317247009E+02    0    0
   15    2    3    3    0    0    0.9909877777E+01    0.2648853493E+02    0.4087378693E+02    0.4973602676E+02    0.1777029991E+01    0    0
  -16    1    3    3    0    0   -0.5509906292E+01   -0.2138868332E+02   -0.2800024796E+02    0.3566298676E+02    0.0000000000E+00    0    0
   16    1    4    4    0    0   -0.3542044067E+02    0.9329096675E+00   -0.2194132233E+02    0.4167612839E+02    0.0000000000E+00    0    0
  -15    2    4    4    0    0    0.3102046967E+02   -0.6032761574E+01    0.9067785263E+01    0.3292485809E+02    0.1777029991E+01    0    0
   16    1    5    5    0    0    0.5973147869E+01    0.1621264076E+02    0.2461614037E+02    0.3007461548E+02    0.1726334885E-03    0    0
   13    1    5    5    0    0    0.3039391994E+01    0.8919502258E+01    0.1360804272E+02    0.1655250549E+02    0.1056590080E+00    0    0
  -14    1    5    5    0    0    0.8977283239E+00    0.1357434034E+01    0.2651211262E+01    0.3110862255E+01    0.1831054688E-03    0    0
  -16    1    8    8    0    0    0.7338579178E+01   -0.1258740783E+01    0.2322827816E+01    0.7799660206E+01    0.1930101134E-03    0    0
   24    2    8    8    0    0    0.2368311119E+02   -0.4774258137E+01    0.6745314598E+01    0.2512649345E+02    0.1469059110E+01    0    0
  211    1   13   13    0    0    0.7239574432E+01   -0.1249173284E+01    0.1947260022E+01    0.7601524353E+01    0.1395680457E+00    0    0
  211    1   13   13    0    0    0.4174542904E+01   -0.6261837482E+00    0.1051241875E+01    0.4352413654E+01    0.1395681053E+00    0    0
 -211    1   13   13    0    0    0.2015850782E+01   -0.3646636307E+00    0.4802885950E+00    0.2108741283E+01    0.1395680308E+00    0    0
  111    1   13   13    0    0    0.2775487661E+01   -0.7620702982E+00    0.1013705969E+01    0.3054488182E+01    0.1349641681E+00    0    0
  111    1   13   13    0    0    0.7477657318E+01   -0.1772167802E+01    0.2252818584E+01    0.8009328842E+01    0.1349638402E+00    0    0
</event>
<event>
   19 9999    1    0.9119999695E+02    0.7565275169E-02    0.1185000000E+00
   11   -1    0    0    0    0    0.0000000000E+00    0.0000000000E+00    0.8000000000E+02    0.8000000000E+02    0.5109988851E-03    0    0
  -11   -1    0    0    0    0    0.0000000000E+00    0.0000000000E+00   -0.8000000000E+02    0.8000000000E+02    0.5109988851E-03    0    0
  -24    2    1    2    0    0   -0.1504019070E+02   -0.1350285149E+02    0.8420390129E+01    0.8353318024E+02    0.8061238098E+02    0    0
   24    2    1    2    0    0    0.1504019070E+02    0.1350285149E+02   -0.8420390129E+01    0.7646681976E+02    0.7326483917E+02    0    0
   15    2    3    3    0    0    0.5964484215E+01   -0.2382675934E+02    0.3832727432E+02    0.4555685806E+02    0.1777029991E+01    0    0
  -16    1    3    3    0    0   -0.2100467491E+02    0.1032390785E+02   -0.2990688515E+02    0.3797632599E+02    0.0000000000E+00    0    0
   16    1    4    4    0    0   -0.1166062450E+02    0.5886333585E+00   -0.3481671524E+02    0.3672220230E+02    0.0000000000E+00    0    0
  -15    2    4    4    0    0    0.2670081520E+02    0.1291421795E+02    0.2639632416E+02    0.3974461365E+02    0.1777029991E+01    0    0
   16    1    5    5    0    0    0.4392750740E+01   -0.1704169846E+02    0.2659962082E+02    0.3189444351E+02    0.2441406250E-03    0    0
   13    1    5    5    0    0    0.1589337826E+01   -0.6545677662E+01    0.1151986980E+02    0.1334505367E+02    0.1056587473E+00    0    0
  -14    1    5    5    0    0   -0.1736957766E-01   -0.2403212339E+00    0.2092943043E+00    0.3191553056E+00    0.4577636719E-04    0    0
  -16    1    8    8    0    0    0.1129028678E+01    0.6393607259E+00    0.1025396943E+01    0.1653761387E+01    0.6103515625E-04    0    0
   24    2    8    8    0    0    0.2557283783E+02    0.1227536583E+02    0.2537196541E+02    0.3809241867E+02    0.1625093102E+01    0    0
  211    1   13   13    0    0    0.2673393488E+01    0.1347695351E+01    0.2407007933E+01    0.3844018936E+01    0.1395679861E+00    0    0
  211    1   13   13    0    0    0.8067214966E+01    0.3800232649E+01    0.7894056320E+01    0.1191038704E+02    0.1395680010E+00    0    0
 -211    1   13   13    0    0    0.2694468737E+01    0.1214689970E+01    0.2838822603E+01    0.4100491047E+01    0.1395680010E+00    0    0
  111    1   13   13    0    0    0.3409411669E+01    0.1491311073E+01    0.3081040144E+01    0.4833127022E+01    0.1349640191E+00    0    0
  111    1   13   13    0    0    0.8706853390E+00    0.4495638013E+00    0.9373642802E+00    0.1362742662E+01    0.1349640191E+00    0    0
  111    1   13   13    0    0    0.7857665539E+01    0.3971873045E+01    0.8213675499E+01    0.1204165077E+02    0.1349639744E+00    0    0
</event>
<event>
   19 9999    1    0.9119999695E+02    0.7565275169E-02    0.1185000000E+00
   11   -1    0    0    0    0    0.0000000000E+00    0.0000000000E+00    0.8000000000E+02    0.8000000000E+02    0.5109988851E-03    0    0
  -11   -1    0    0    0    0    0.0000000000E+00    0.0000000000E+00   -0.8000000000E+02    0.8000000000E+02    0.5109988851E-03    0    0
  -24    2    1    2    0    0    0.4071249485E+01    0.2144309044E+02    0.1685491562E+02    0.7429061127E+02    0.6898279572E+02    0    0
   24    2    1    2    0    0   -0.4125470161E+01   -0.2144725800E+02   -0.1693348312E+02    0.8557755280E+02    0.8099240875E+02    0    0
   22    1    1    2    0    0   -0.3959700000E-02    0.2133103088E-01    0.6654639542E-01    0.6999367476E-01    0.0000000000E+00    0    0
   22    1    1    2    0    0    0.5818038806E-01   -0.1716373861E-01    0.1202202681E-01    0.6183915213E-01    0.0000000000E+00    0    0
   15    2    3    3    0    0    0.2966881752E+02   -0.7592769623E+01   -0.2935729980E+01    0.3081663895E+02    0.1777029991E+01    0    0
  -16    1    3    3    0    0   -0.2559756851E+02    0.2903586006E+02    0.1979064560E+02    0.4347397232E+02    0.0000000000E+00    0    0
   16    1    4    4    0    0    0.3799299240E+02   -0.4715684891E+01   -0.4492039204E+01    0.3854716110E+02    0.0000000000E+00    0    0
  -15    2    4    4    0    0   -0.4211846542E+02   -0.1673157310E+02   -0.1244144440E+02    0.4703039551E+02    0.1777029991E+01    0    0
   16    1    7    7    0    0    0.4972970486E+01   -0.9585735798E+00   -0.3376699388E+00    0.5075757980E+01    0.3286843712E-03    0    0
  -24    2    7    7    0    0    0.2469701576E+02   -0.6634494781E+01   -0.2598175764E+01    0.2574209404E+02    0.1394923210E+01    0    0
 -211    1   12   12    0    0    0.1104050159E+02   -0.3054587126E+01   -0.1676380157E+01    0.1157812214E+02    0.1395676434E+00    0    0
  310    1   12   12    0    0    0.9110692978E+01   -0.2467198849E+01   -0.6056098342E+00    0.9471340179E+01    0.4977200329E+00    0    0
  111    1   12   12    0    0    0.4545817852E+01   -0.1112708330E+01   -0.3161854148E+00    0.4692628860E+01    0.1349639446E+00    0    0
  -16    1   10   10    0    0   -0.1602886009E+02   -0.5793971539E+01   -0.5147739887E+01    0.1780431747E+02    0.0000000000E+00    0    0
  323    2   10   10    0    0   -0.2609126091E+02   -0.1093826008E+02   -0.7294193268E+01    0.2922792625E+02    0.8167276978E+00    0    0
  211    1   17   17    0    0   -0.8991977692E+01   -0.4007693291E+01   -0.2469921350E+01    0.1015072727E+02    0.1395679265E+00    0    0
  130    1   17   17    0    0   -0.1709928131E+02   -0.6930566311E+01   -0.4824271679E+01    0.1907719803E+02    0.4977199733E+00    0    0
</event>
<event>
   22 9999    1    0.9119999695E+02    0.7565275169E-02    0.1185000000E+00
   11   -1    0    0    0    0    0.0000000000E+00    0.0000000000E+00    0.8000000000E+02    0.8000000000E+02    0.5109988851E-03    0    0
  -11   -1    0    0    0    0    0.0000000000E+00    0.0000000000E+00   -0.8000000000E+02    0.8000000000E+02    0.5109988851E-03    0    0
  -24    2    1    2    0    0   -0.8660925865E+01   -0.5659339905E+01    0.1774842262E+02    0.7657851410E+02    0.7377141571E+02    0    0
   24    2    1    2    0    0    0.8660923958E+01    0.5659339905E+01   -0.1774806976E+02    0.8342087555E+02    0.8085176849E+02    0    0
   22    1    1    2    0    0    0.1746034400E-05   -0.9929696034E-06   -0.4832439881E-03    0.4832481500E-03    0.0000000000E+00    0    0
   22    1    1    2    0    0    0.6982523360E-06    0.1192216700E-05    0.1298818243E-03    0.1298891730E-03    0.0000000000E+00    0    0
   15    2    3    3    0    0   -0.2230974388E+02    0.2853171158E+02    0.1378239155E+01    0.3628829956E+02    0.1777029991E+01    0    0
  -16    1    3    3    0    0    0.1364881802E+02   -0.3419105148E+02    0.1637018394E+02    0.4029021072E+02    0.0000000000E+00    0    0
   16    1    4    4    0    0   -0.1869031334E+02    0.3187054253E+02   -0.2526417160E+02    0.4475865936E+02    0.0000000000E+00    0    0
  -15    2    4    4    0    0    0.2735123634E+02   -0.2621120262E+02    0.7516101360E+01    0.3866221619E+02    0.1777029991E+01    0    0
   16    1    7    7    0    0   -0.4903392121E-01    0.1002606973E+00    0.2403379977E-01    0.1141672283E+00    0.3051757812E-04    0    0
  -24    2    7    7    0    0   -0.2226158905E+02    0.2843257523E+02    0.1354259610E+01    0.3617556000E+02    0.1687465191E+01    0    0
 -211    1   12   12    0    0   -0.3579873800E+01    0.4816802979E+01    0.1608180404E+00    0.6005199909E+01    0.1395680159E+00    0    0
 -211    1   12   12    0    0   -0.5180662632E+01    0.7011544228E+01    0.1389367431E+00    0.8720080376E+01    0.1395680010E+00    0    0
 -211    1   12   12    0    0   -0.1152460194E+02    0.1393943310E+02    0.7341867089E+00    0.1810201073E+02    0.1395680308E+00    0    0
  211    1   12   12    0    0   -0.8666564822E+00    0.1231245875E+01    0.2099062651E+00    0.1526630163E+01    0.1395679861E+00    0    0
  211    1   12   12    0    0   -0.1109794736E+01    0.1433549166E+01    0.1104118973E+00    0.1821641445E+01    0.1395680010E+00    0    0
  -16    1   10   10    0    0    0.1422315121E+01   -0.1060925484E+01    0.2901795208E+00    0.1797984242E+01    0.4430307308E-03    0    0
   24    2   10   10    0    0    0.2592999649E+02   -0.2515130806E+02    0.7226217270E+01    0.3686574936E+02    0.1382888556E+01    0    0
  321    1   19   19    0    0    0.1294735050E+02   -0.1238272285E+02    0.3461024523E+01    0.1825344086E+02    0.4936670363E+00    0    0
  111    1   19   19    0    0    0.1914625287E+01   -0.1991357327E+01    0.4095464647E+00    0.2795932293E+01    0.1349634826E+00    0    0
  130    1   19   19    0    0    0.1106802559E+02   -0.1077723122E+02    0.3355647564E+01    0.1581638336E+02    0.4977200627E+00    0    0
</event>
<event>
   23 9999    1    0.9119999695E+02    0.7565275169E-02    0.1185000000E+00
   11   -1    0    0    0    0    0.0000000000E+00    0.0000000000E+00    0.8000000000E+02    0.8000000000E+02    0.5109988851E-03    0    0
  -11   -1    0    0    0    0    0.0000000000E+00    0.0000000000E+00   -0.8000000000E+02    0.8000000000E+02    0.5109988851E-03    0    0
  -24    2    1    2    0    0    0.1378430247E+01   -0.1003952789E+02   -0.1465409517E+01    0.7811316681E+02    0.7743918610E+02    0    0
   24    2    1    2    0    0   -0.1367193103E+01    0.1005598164E+02    0.1160357714E+01    0.8158109283E+02    0.8093909454E+02    0    0
   22    1    1    2    0    0   -0.1123670116E-01   -0.1644473523E-01    0.2885331511E+00    0.2892197669E+00    0.0000000000E+00    0    0
   22    1    1    2    0    0   -0.4016669379E-06   -0.9290499293E-05    0.1651864499E-01    0.1651864685E-01    0.0000000000E+00    0    0
   15    2    3    3    0    0   -0.3657746887E+02   -0.3527980089E+01   -0.1107678413E+02    0.3842148972E+02    0.1777029991E+01    0    0
  -16    1    3    3    0    0    0.3795590210E+02   -0.6511547565E+01    0.9611374855E+01    0.3969167709E+02    0.0000000000E+00    0    0
   16    1    4    4    0    0   -0.3780768204E+02    0.1344098282E+02    0.1438599873E+02    0.4262672806E+02    0.0000000000E+00    0    0
  -15    2    4    4    0    0    0.3644048691E+02   -0.3385001183E+01   -0.1322564125E+02    0.3895436859E+02    0.1777029991E+01    0    0
   16    1    7    7    0    0   -0.1562607670E+02   -0.1461244226E+01   -0.5306657791E+01    0.1656714058E+02    0.4228639591E-03    0    0
  -24    2    7    7    0    0   -0.2095283699E+02   -0.2066874981E+01   -0.5770562649E+01    0.2185586548E+02    0.1042196393E+01    0    0
 -211    1   12   12    0    0   -0.6918796539E+01   -0.7315494418E+00   -0.1734874725E+01    0.7171762943E+01    0.1395678222E+00    0    0
  111    1   12   12    0    0   -0.1123239040E+01   -0.1973291487E-01   -0.4724181294E+00    0.1226152301E+01    0.1349641681E+00    0    0
   22    1   12   12    0    0   -0.1291079903E+02   -0.1315592527E+01   -0.3563269615E+01    0.1345794964E+02    0.1930101134E-03    0    0
  -16    1   10   10    0    0    0.8642958403E+00    0.1927183243E-02   -0.3887278736E+00    0.9476920962E+00    0.2157918607E-04    0    0
   24    2   10   10    0    0    0.3557762527E+02   -0.3387061596E+01   -0.1283743382E+02    0.3800820923E+02    0.1607666850E+01    0    0
  211    1   17   17    0    0    0.3589589596E+01   -0.6128972769E+00   -0.1123563528E+01    0.3813485384E+01    0.1395680010E+00    0    0
  211    1   17   17    0    0    0.4662013054E+01   -0.3558576107E+00   -0.1725684524E+01    0.4985826492E+01    0.1395680010E+00    0    0
  211    1   17   17    0    0    0.5520329952E+01   -0.5716763735E+00   -0.1982586384E+01    0.5894996643E+01    0.1395679861E+00    0    0
 -211    1   17   17    0    0    0.3770186901E+01   -0.3412658274E+00   -0.1283439279E+01    0.3999683380E+01    0.1395680010E+00    0    0
 -211    1   17   17    0    0    0.6972784996E+01   -0.7934175134E+00   -0.2708674908E+01    0.7523671627E+01    0.1395680308E+00    0    0
  111    1   17   17    0    0    0.1106272411E+02   -0.7119471431E+00   -0.4013485432E+01    0.1179054737E+02    0.1349639595E+00    0    0
</event>
<event>
   23 9999    1    0.9119999695E+02    0.7565275169E-02    0.1185000000E+00
   11   -1    0    0    0    0    0.0000000000E+00    0.0000000000E+00    0.8000000000E+02    0.8000000000E+02    0.5109988851E-03    0    0
  -11   -1    0    0    0    0    0.0000000000E+00    0.0000000000E+00   -0.8000000000E+02    0.8000000000E+02    0.5109988851E-03    0    0
  -24    2    1    2    0    0    0.8309693336E+01   -0.1478031874E+00    0.1444005203E+02    0.7742866516E+02    0.7561487579E+02    0    0
   24    2    1    2    0    0   -0.8309693336E+01    0.1478031874E+00   -0.1444005203E+02    0.8257133484E+02    0.8087297058E+02    0    0
   15    2    3    3    0    0   -0.2450498009E+02   -0.1947922468E+01   -0.1856186104E+02    0.3085431862E+02    0.1777029991E+01    0    0
  -16    1    3    3    0    0    0.3281467438E+02    0.1800119281E+01    0.3300191116E+02    0.4657434464E+02    0.0000000000E+00    0    0
   16    1    4    4    0    0    0.2309035301E+01   -0.3196121693E+01    0.3329266739E+02    0.3352534103E+02    0.0000000000E+00    0    0
  -15    2    4    4    0    0   -0.1061872864E+02    0.3343924761E+01   -0.4773271942E+02    0.4904599380E+02    0.1777029991E+01    0    0
   16    1    5    5    0    0   -0.4063307285E+01    0.3960651159E-01   -0.3165500879E+01    0.5150963783E+01    0.2634075354E-03    0    0
  -24    2    5    5    0    0   -0.2044263840E+02   -0.1987605691E+01   -0.1539709091E+02    0.2570457077E+02    0.1342558026E+01    0    0
 -211    1   10   10    0    0   -0.2315990925E+01   -0.2650538385E+00   -0.1638257146E+01    0.2852618694E+01    0.1395674646E+00    0    0
 -211    1   10   10    0    0   -0.3901834965E+01   -0.1969555318E+00   -0.2759477139E+01    0.4785112381E+01    0.1395679861E+00    0    0
  211    1   10   10    0    0   -0.1844784617E+01   -0.3258740008E+00   -0.1273451209E+01    0.2269489288E+01    0.1395679563E+00    0    0
  111    1   10   10    0    0   -0.4408853531E+01   -0.6295104623E+00   -0.3514246941E+01    0.5674717426E+01    0.1349639297E+00    0    0
  111    1   10   10    0    0   -0.7971177101E+01   -0.5702120066E+00   -0.6211659908E+01    0.1012263489E+02    0.1349638999E+00    0    0
  -16    1    8    8    0    0   -0.1160223603E+01    0.2728010714E+00   -0.5559420586E+01    0.5685744762E+01    0.0000000000E+00    0    0
   24    2    8    8    0    0   -0.9458923340E+01    0.3071255207E+01   -0.4217517471E+02    0.4336217880E+02    0.1621481776E+01    0    0
  211    1   17   17    0    0   -0.2218083620E+01    0.1093780041E+01   -0.1018837643E+02    0.1048516846E+02    0.1395678669E+00    0    0
  211    1   17   17    0    0   -0.2439989299E+00    0.9399156272E-01   -0.1423256159E+01    0.1453790665E+01    0.1395679265E+00    0    0
  211    1   17   17    0    0   -0.2765242815E+01    0.7594785690E+00   -0.1282840633E+02    0.1314575481E+02    0.1395679861E+00    0    0
 -211    1   17   17    0    0   -0.1545745134E+01    0.4167935550E+00   -0.6163981915E+01    0.6370023251E+01    0.1395679861E+00    0    0
 -211    1   17   17    0    0   -0.1301377773E+01    0.2924635112E+00   -0.4901761055E+01    0.5081915379E+01    0.1395679861E+00    0    0
  111    1   17   17    0    0   -0.1384474754E+01    0.4147479832E+00   -0.6669392586E+01    0.6825525761E+01    0.1349639744E+00    0    0
</event>
<event>
   17 9999    1    0.9119999695E+02    0.7565275169E-02    0.1185000000E+00
   11   -1    0    0    0    0    0.0000000000E+00    0.0000000000E+00    0.8000000000E+02    0.8000000000E+02    0.5109988851E-03    0    0
  -11   -1    0    0    0    0    0.0000000000E+00    0.0000000000E+00   -0.8000000000E+02    0.8000000000E+02    0.5109988851E-03    0    0
  -24    2    1    2    0    0   -0.5084153175E+01    0.4137755394E+01    0.7527040482E+01    0.7788549042E+02    0.7724327850E+02    0    0
   24    2    1    2    0    0    0.5133677006E+01   -0.4051366329E+01   -0.7615314484E+01    0.8198143768E+02    0.8136457825E+02    0    0
   22    1    1    2    0    0   -0.4952386022E-01   -0.8638923615E-01    0.8827421069E-01    0.1330715865E+00    0.0000000000E+00    0    0
   15    2    3    3    0    0    0.2702750778E+02    0.4901473522E+01   -0.2123857498E+02    0.3476701736E+02    0.1777029991E+01    0    0
  -16    1    3    3    0    0   -0.3211166000E+02   -0.7637180090E+00    0.2876561356E+02    0.4311847305E+02    0.0000000000E+00    0    0
   16    1    4    4    0    0    0.2418365288E+02    0.3001517868E+02    0.8904971123E+01    0.3956082153E+02    0.0000000000E+00    0    0
  -15    2    4    4    0    0   -0.1904997635E+02   -0.3406654358E+02   -0.1652028656E+02    0.4242061615E+02    0.1777029991E+01    0    0
   16    1    6    6    0    0    0.8306544304E+01    0.9982669950E+00   -0.5931705475E+01    0.1025574684E+02    0.1220703125E-03    0    0
   13    1    6    6    0    0    0.1813309669E+02    0.3630659819E+01   -0.1470767117E+02    0.2362874603E+02    0.1056594923E+00    0    0
  -14    1    6    6    0    0    0.5889312625E+00    0.2727397978E+00   -0.6000337005E+00    0.8838933706E+00    0.6103515625E-04    0    0
  -16    1    9    9    0    0   -0.2876115799E+01   -0.4561058044E+01   -0.2331575155E+01    0.5874651909E+01    0.6075795973E-03    0    0
   24    2    9    9    0    0   -0.1617461014E+02   -0.2950682640E+02   -0.1418936062E+02    0.3654763412E+02    0.1456279278E+01    0    0
  321    1   14   14    0    0   -0.6558633804E+01   -0.1235842037E+02   -0.5816770554E+01    0.1515997219E+02    0.4936670065E+00    0    0
  111    1   14   14    0    0   -0.1699911475E+01   -0.2569961309E+01   -0.1300304651E+01    0.3347149134E+01    0.1349638700E+00    0    0
  310    1   14   14    0    0   -0.7916061878E+01   -0.1457843971E+02   -0.7072283268E+01    0.1804050636E+02    0.4977200329E+00    0    0
</event>
<event>
   21 9999    1    0.9119999695E+02    0.7565275169E-02    0.1185000000E+00
   11   -1    0    0    0    0    0.0000000000E+00    0.0000000000E+00    0.8000000000E+02    0.8000000000E+02    0.5109988851E-03    0    0
  -11   -1    0    0    0    0    0.0000000000E+00    0.0000000000E+00   -0.8000000000E+02    0.8000000000E+02    0.5109988851E-03    0    0
  -24    2    1    2    0    0    0.2172640038E+02    0.2297636271E+01    0.1010379887E+02    0.7564681244E+02    0.7171497345E+02    0    0
   24    2    1    2    0    0   -0.2172651482E+02   -0.2297525644E+01   -0.1010521984E+02    0.8435169220E+02    0.8084413147E+02    0    0
   22    1    1    2    0    0    0.6475485134E-04   -0.8053009515E-04    0.1429617289E-02    0.1433347119E-02    0.0000000000E+00    0    0
   15    2    3    3    0    0    0.5834807873E+01   -0.2446660042E+02   -0.1076161957E+02    0.2741587257E+02    0.1777029991E+01    0    0
  -16    1    3    3    0    0    0.1669500160E+02    0.2824810219E+02    0.2660818481E+02    0.4224539948E+02    0.0000000000E+00    0    0
   22    1    3    3    0    0   -0.8034087420E+00   -0.1483865857E+01   -0.5742767334E+01    0.5985541344E+01    0.0000000000E+00    0    0
   16    1    4    4    0    0    0.2115521049E+02   -0.1649796104E+02    0.1688661575E+02    0.3169989777E+02    0.0000000000E+00    0    0
  -15    2    4    4    0    0   -0.4288172531E+02    0.1420043659E+02   -0.2699183464E+02    0.5265179825E+02    0.1777029991E+01    0    0
   16    1    6    6    0    0    0.1469004512E+01   -0.7573439121E+01   -0.2861896515E+01    0.8228331566E+01    0.3860202269E-03    0    0
  -24    2    6    6    0    0    0.4366035461E+01   -0.1689413071E+02   -0.7900148392E+01    0.1918862915E+02    0.1147624850E+01    0    0
  111    1   12   12    0    0    0.8091393113E+00   -0.3077354670E+01   -0.1340508938E+01    0.3455430984E+01    0.1349642724E+00    0    0
  111    1   12   12    0    0    0.1109894037E+01   -0.4131888866E+01   -0.2307936430E+01    0.4863040924E+01    0.1349637955E+00    0    0
  111    1   12   12    0    0    0.1033154011E+01   -0.4396055698E+01   -0.2164071083E+01    0.5009405613E+01    0.1349640340E+00    0    0
 -211    1   12   12    0    0    0.1413848281E+01   -0.5288831711E+01   -0.2087631226E+01    0.5860751629E+01    0.1395679116E+00    0    0
  -16    1   10   10    0    0   -0.4929264069E+01    0.1498857975E+01   -0.2746387959E+01    0.5838396072E+01    0.3452669771E-03    0    0
   24    2   10   10    0    0   -0.3795415115E+02    0.1270213699E+02   -0.2424650955E+02    0.4681547546E+02    0.1390552163E+01    0    0
  211    1   18   18    0    0   -0.4834695339E+01    0.1392463207E+01   -0.3124074459E+01    0.5923896790E+01    0.1395680606E+00    0    0
  130    1   18   18    0    0   -0.1347782230E+02    0.4504033089E+01   -0.8182864189E+01    0.1640563965E+02    0.4977200627E+00    0    0
  111    1   18   18    0    0   -0.1964163780E+02    0.6805643082E+01   -0.1293957520E+02    0.2448594475E+02    0.1349637359E+00    0    0
</event>
<event>
   16 9999    1    0.9119999695E+02    0.7565275169E-02    0.1185000000E+00
   11   -1    0    0    0    0    0.0000000000E+00    0.0000000000E+00    0.8000000000E+02    0.8000000000E+02    0.5109988851E-03    0    0
  -11   -1    0    0    0    0    0.0000000000E+00    0.0000000000E+00   -0.8000000000E+02    0.8000000000E+02    0.5109988851E-03    0    0
  -24    2    1    2    0    0    0.5415658474E+01    0.4907094002E+01    0.9514364243E+01    0.7823275757E+02    0.7730738831E+02    0    0
   24    2    1    2    0    0   -0.5486154079E+01   -0.4884774208E+01   -0.8617191315E+01    0.8086702728E+02    0.8007035065E+02    0    0
   22    1    1    2    0    0    0.7049534470E-01   -0.2231963351E-01   -0.8958171606E+00    0.8988638520E+00    0.0000000000E+00    0    0
   22    1    1    2    0    0   -0.1818019690E-07   -0.3290975670E-07   -0.1355927205E-02    0.1355927205E-02    0.0000000000E+00    0    0
   15    2    3    3    0    0    0.3429208755E+02   -0.9766553879E+01    0.9309640884E+01    0.3689390182E+02    0.1777029991E+01    0    0
  -16    1    3    3    0    0   -0.3326073456E+02    0.1575323105E+02   -0.2227339447E+00    0.3680340195E+02    0.0000000000E+00    0    0
   22    1    3    3    0    0    0.4384303570E+01   -0.1079583168E+01    0.4274574220E+00    0.4535453320E+01    0.0000000000E+00    0    0
   16    1    4    4    0    0    0.6026838779E+01   -0.3716813660E+02    0.1354141331E+02    0.4001453400E+02    0.0000000000E+00    0    0
  -15    2    4    4    0    0   -0.1151299286E+02    0.3228336334E+02   -0.2215860367E+02    0.4085248947E+02    0.1777029991E+01    0    0
   16    1    7    7    0    0    0.2604137421E+02   -0.8027039528E+01    0.7311218262E+01    0.2821418762E+02    0.3229676804E-03    0    0
 -321    1    7    7    0    0    0.8252162933E+01   -0.1739926219E+01    0.1998815298E+01    0.8681272507E+01    0.4936670363E+00    0    0
  -16    1   11   11    0    0   -0.1638399959E+01    0.4812284946E+01   -0.3090438604E+01    0.5949222565E+01    0.0000000000E+00    0    0
  -13    1   11   11    0    0   -0.5205698967E+01    0.1224069786E+02   -0.8893752098E+01    0.1600137329E+02    0.1056591719E+00    0    0
   14    1   11   11    0    0   -0.4669347286E+01    0.1523165035E+02   -0.1017528629E+02    0.1890350342E+02    0.4315837214E-04    0    0
</event>
<event>
   16 9999    1    0.9119999695E+02    0.7565275169E-02    0.1185000000E+00
   11   -1    0    0    0    0    0.0000000000E+00    0.0000000000E+00    0.8000000000E+02    0.8000000000E+02    0.5109988851E-03    0    0
  -11   -1    0    0    0    0    0.0000000000E+00    0.0000000000E+00   -0.8000000000E+02    0.8000000000E+02    0.5109988851E-03    0    0
  -24    2    1    2    0    0   -0.8799220085E+01    0.2517605782E+02    0.2002791166E+01    0.7634854126E+02    0.7151103210E+02    0    0
   24    2    1    2    0    0    0.8804259300E+01   -0.2519025612E+02   -0.2325628281E+01    0.8332759094E+02    0.7890509796E+02    0    0
   22    1    1    2    0    0   -0.5038919393E-02    0.1419920940E-01    0.3231775463E+00    0.3235285580E+00    0.0000000000E+00    0    0
   22    1    1    2    0    0    0.1444128799E-06   -0.2989495442E-06   -0.3403129813E-03    0.3403131559E-03    0.0000000000E+00    0    0
   15    2    3    3    0    0    0.2847708130E+02    0.4197955132E+01    0.1380905342E+02    0.3197522163E+02    0.1777029991E+01    0    0
  -16    1    3    3    0    0   -0.3727630234E+02    0.2097810173E+02   -0.1180626202E+02    0.4437331772E+02    0.0000000000E+00    0    0
   16    1    4    4    0    0    0.2163413239E+02   -0.5776301861E+01    0.3366538620E+02    0.4043215942E+02    0.0000000000E+00    0    0
  -15    2    4    4    0    0   -0.1282987404E+02   -0.1941395378E+02   -0.3599101257E+02    0.4289543152E+02    0.1777029991E+01    0    0
   16    1    7    7    0    0    0.3867825747E+01    0.6131532192E+00    0.2463091135E+01    0.4626321793E+01    0.1726334885E-03    0    0
 -323    2    7    7    0    0    0.2461037636E+02    0.3584967375E+01    0.1134650517E+02    0.2735015869E+02    0.8748434186E+00    0    0
 -211    1   12   12    0    0    0.8245993614E+01    0.1039077163E+01    0.4034151554E+01    0.9239585876E+01    0.1395680159E+00    0    0
  130    1   12   12    0    0    0.1636438179E+02    0.2545889854E+01    0.7312354088E+01    0.1811057091E+02    0.4977200925E+00    0    0
  -16    1   10   10    0    0   -0.9447467804E+01   -0.1459105110E+02   -0.2545956230E+02    0.3082762909E+02    0.2441406250E-03    0    0
  211    1   10   10    0    0   -0.3382912159E+01   -0.4823667526E+01   -0.1053286934E+02    0.1206949329E+02    0.1395679563E+00    0    0
</event>
<event>
   19 9999    1    0.9119999695E+02    0.7565275169E-02    0.1185000000E+00
   11   -1    0    0    0    0    0.0000000000E+00    0.0000000000E+00    0.8000000000E+02    0.8000000000E+02    0.5109988851E-03    0    0
  -11   -1    0    0    0    0    0.0000000000E+00    0.0000000000E+00   -0.8000000000E+02    0.8000000000E+02    0.5109988851E-03    0    0
  -24    2    1    2    0    0   -0.8638495445E+01    0.4593182564E+01   -0.6559535503E+01    0.7929860687E+02    0.7841888428E+02    0    0
   24    2    1    2    0    0    0.8592364311E+01   -0.4548483849E+01    0.8009958267E+01    0.7924880219E+02    0.7824127197E+02    0    0
   22    1    1    2    0    0    0.4609571770E-01   -0.4463957623E-01   -0.9506074786E+00    0.9527707100E+00    0.0000000000E+00    0    0
   22    1    1    2    0    0    0.3570704212E-04   -0.5949348633E-04   -0.4998155236E+00    0.4998155236E+00    0.0000000000E+00    0    0
   15    2    3    3    0    0    0.2505635643E+02    0.2685552025E+02   -0.1169763851E+02    0.3858798599E+02    0.1777029991E+01    0    0
  -16    1    3    3    0    0   -0.3369485092E+02   -0.2226233673E+02    0.5138103485E+01    0.4071062469E+02    0.0000000000E+00    0    0
   16    1    4    4    0    0    0.2172614813E+01    0.3432241821E+02    0.1764189911E+02    0.3865210342E+02    0.0000000000E+00    0    0
  -15    2    4    4    0    0    0.6419749737E+01   -0.3887089920E+02   -0.9631940842E+01    0.4059670258E+02    0.1777029991E+01    0    0
   16    1    7    7    0    0    0.4836525440E+01    0.5420674324E+01   -0.2309592724E+01    0.7622985363E+01    0.5848597721E-04    0    0
  -24    2    7    7    0    0    0.2022081947E+02    0.2143590355E+02   -0.9388506889E+01    0.3096652031E+02    0.1549773097E+01    0    0
 -211    1   12   12    0    0    0.3559651852E+01    0.4057619572E+01   -0.1835905433E+01    0.5703106880E+01    0.1395679861E+00    0    0
 -211    1   12   12    0    0    0.8111449480E+00    0.7336727381E+00   -0.2884613276E+00    0.1139702082E+01    0.1395680159E+00    0    0
 -211    1   12   12    0    0    0.3491165161E+01    0.3794332266E+01   -0.1317638040E+01    0.5323611736E+01    0.1395680159E+00    0    0
  211    1   12   12    0    0    0.1279504538E+01    0.1315882683E+01   -0.6156333685E+00    0.1940918088E+01    0.1395680010E+00    0    0
  211    1   12   12    0    0    0.1107935238E+02    0.1153439713E+02   -0.5330868721E+01    0.1685918236E+02    0.1395679861E+00    0    0
  -16    1   10   10    0    0    0.2682653189E+01   -0.1453975582E+02   -0.2837277174E+01    0.1505494118E+02    0.3452669771E-03    0    0
  321    1   10   10    0    0    0.3737349510E+01   -0.2433267593E+02   -0.6795042992E+01    0.2554335976E+02    0.4936670661E+00    0    0
</event>
<event>
   20 9999    1    0.9119999695E+02    0.7565275169E-02    0.1185000000E+00
   11   -1    0    0    0    0    0.0000000000E+00    0.0000000000E+00    0.8000000000E+02    0.8000000000E+02    0.5109988851E-03    0    0
  -11   -1    0    0    0    0    0.0000000000E+00    0.0000000000E+00   -0.8000000000E+02    0.8000000000E+02    0.5109988851E-03    0    0
  -24    2    1    2    0    0    0.2968549728E+01    0.3465579748E+01   -0.3495836258E+01    0.7986489105E+02    0.7965775299E+02    0    0
   24    2    1    2    0    0   -0.2967170000E+01   -0.3466536999E+01    0.3597017527E+01    0.8002748108E+02    0.7981628418E+02    0    0
   22    1    1    2    0    0    0.1954907702E-05    0.3207949248E-06   -0.1041833162E+00    0.1041833162E+00    0.0000000000E+00    0    0
   22    1    1    2    0    0   -0.1381729031E-02    0.9569664253E-03    0.3002068261E-02    0.3440548433E-02    0.0000000000E+00    0    0
   15    2    3    3    0    0    0.3377413940E+02    0.1343683147E+02   -0.2204534531E+02    0.4254874802E+02    0.1777029991E+01    0    0
  -16    1    3    3    0    0   -0.3080558968E+02   -0.9971251488E+01    0.1854950905E+02    0.3731614304E+02    0.0000000000E+00    0    0
   16    1    4    4    0    0    0.2378235245E+02    0.2798640823E+02   -0.6942571640E+01    0.3737697983E+02    0.0000000000E+00    0    0
  -15    2    4    4    0    0   -0.2674952316E+02   -0.3145294571E+02    0.1053958893E+02    0.4265050507E+02    0.1777029991E+01    0    0
   16    1    7    7    0    0    0.1146046925E+02    0.4424321651E+01   -0.7548310757E+01    0.1441852856E+02    0.6466559134E-03    0    0
  -24    2    7    7    0    0    0.2231499863E+02    0.9013037682E+01   -0.1449790096E+02    0.2813189316E+02    0.1421357036E+01    0    0
 -321    1   12   12    0    0    0.1303166008E+02    0.5265230656E+01   -0.8144400597E+01    0.1625182343E+02    0.4936671853E+00    0    0
  111    1   12   12    0    0    0.4225985527E+01    0.1651014328E+01   -0.2756865740E+01    0.5310680389E+01    0.1349640042E+00    0    0
  130    1   12   12    0    0    0.5057354450E+01    0.2096793175E+01   -0.3596635103E+01    0.6569389820E+01    0.4977200925E+00    0    0
  -16    1   10   10    0    0   -0.8898421288E+01   -0.1084151649E+02    0.3681953669E+01    0.1450093651E+02    0.4422417260E-03    0    0
20213    2   10   10    0    0   -0.1785215378E+02   -0.2061266518E+02    0.6858049870E+01    0.2815124512E+02    0.1370535016E+01    0    0
  211    1   17   17    0    0   -0.7553838253E+01   -0.8884812355E+01    0.3348246336E+01    0.1213386154E+02    0.1395675838E+00    0    0
  211    1   17   17    0    0   -0.7961684704E+01   -0.9441544533E+01    0.2937091827E+01    0.1269555759E+02    0.1395679712E+00    0    0
 -211    1   17   17    0    0   -0.2336631060E+01   -0.2286308527E+01    0.5727123022E+00    0.3321826458E+01    0.1395681500E+00    0    0
</event>
<event>
   18 9999    1    0.9119999695E+02    0.7565275169E-02    0.1185000000E+00
   11   -1    0    0    0    0    0.0000000000E+00    0.0000000000E+00    0.8000000000E+02    0.8000000000E+02    0.5109988851E-03    0    0
  -11   -1    0    0    0    0    0.0000000000E+00    0.0000000000E+00   -0.8000000000E+02    0.8000000000E+02    0.5109988851E-03    0    0
  -24    2    1    2    0    0    0.1523890209E+02   -0.1704982567E+02    0.1631532669E+02    0.7450914764E+02    0.6901088715E+02    0    0
   24    2    1    2    0    0   -0.1523890305E+02    0.1704982567E+02   -0.1631617737E+02    0.8548999786E+02    0.8074281311E+02    0    0
   22    1    1    2    0    0    0.7848174732E-07    0.1416611495E-08    0.8507181192E-03    0.8507181192E-03    0.0000000000E+00    0    0
   15    2    3    3    0    0   -0.1728279114E+02   -0.3194409561E+02    0.1287003803E+02    0.3857351303E+02    0.1777029991E+01    0    0
  -16    1    3    3    0    0    0.3252169418E+02    0.1489426994E+02    0.3445289612E+01    0.3593563461E+02    0.0000000000E+00    0    0
   16    1    4    4    0    0    0.8449397087E+01    0.1209322071E+02    0.2987139702E+02    0.3331574249E+02    0.0000000000E+00    0    0
  -15    2    4    4    0    0   -0.2368829918E+02    0.4956605434E+01   -0.4618757629E+02    0.5217425919E+02    0.1777029991E+01    0    0
   16    1    6    6    0    0   -0.2501248568E-01   -0.9103558213E-01   -0.1149341557E-01    0.9510772675E-01    0.5320921773E-03    0    0
  -24    2    6    6    0    0   -0.1725845909E+02   -0.3185431671E+02    0.1288203716E+02    0.3847992325E+02    0.1485125542E+01    0    0
  221    1   11   11    0    0   -0.6519034386E+01   -0.1216965485E+02    0.4598904133E+01    0.1456191635E+02    0.5488000512E+00    0    0
 -211    1   11   11    0    0   -0.1093208194E+01   -0.1680975795E+01    0.6428056955E+00    0.2110322714E+01    0.1395678818E+00    0    0
  111    1   11   11    0    0   -0.9646215439E+01   -0.1800368500E+02    0.7640326977E+01    0.2180768013E+02    0.1349640042E+00    0    0
  -16    1    9    9    0    0   -0.4159780502E+01    0.4809541404E+00   -0.7740542889E+01    0.8800630569E+01    0.8631674427E-04    0    0
   24    2    9    9    0    0   -0.1952945137E+02    0.4475846291E+01   -0.3844884872E+02    0.4337568283E+02    0.1305043340E+01    0    0
  321    1   16   16    0    0   -0.1148500729E+02    0.2317221880E+01   -0.2304737854E+02    0.2585923958E+02    0.4936669469E+00    0    0
  130    1   16   16    0    0   -0.8044443130E+01    0.2158624411E+01   -0.1540147018E+02    0.1751644135E+02    0.4977200329E+00    0    0
</event>
<event>
   17 9999    1    0.9119999695E+02    0.7565275169E-02    0.1185000000E+00
   11   -1    0    0    0    0    0.0000000000E+00    0.0000000000E+00    0.8000000000E+02    0.8000000000E+02    0.5109988851E-03    0    0
  -11   -1    0    0    0    0    0.0000000000E+00    0.0000000000E+00   -0.8000000000E+02    0.8000000000E+02    0.5109988851E-03    0    0
  -24    2    1    2    0    0   -0.3802741528E+01    0.1275999546E+02    0.1358497715E+02    0.7355783844E+02    0.7105578613E+02    0    0
   24    2    1    2    0    0    0.3811281443E+01   -0.1276945877E+02   -0.9486971855E+01    0.8234413910E+02    0.8070297241E+02    0    0
   22    1    1    2    0    0   -0.8539981209E-02    0.9462600574E-02   -0.4098005295E+01    0.4098025322E+01    0.0000000000E+00    0    0
   15    2    3    3    0    0    0.3106606865E+02    0.1889413834E+02    0.2636198521E+01    0.3649926758E+02    0.1777029991E+01    0    0
  -16    1    3    3    0    0   -0.3486881256E+02   -0.6134143353E+01    0.1094877815E+02    0.3705856705E+02    0.0000000000E+00    0    0
   16    1    4    4    0    0    0.1969147301E+02   -0.4311004639E+02   -0.7610743523E+01    0.4800160217E+02    0.0000000000E+00    0    0
  -15    2    4    4    0    0   -0.1588019276E+02    0.3034058952E+02   -0.1876228094E+01    0.3434253693E+02    0.1777029991E+01    0    0
   16    1    6    6    0    0    0.1062994862E+02    0.5937999249E+01    0.1798776090E+00    0.1217735100E+02    0.2441406250E-03    0    0
 -211    1    6    6    0    0    0.1712985229E+02    0.1084206390E+02    0.2065849781E+01    0.2037816238E+02    0.1395681798E+00    0    0
   22    1    6    6    0    0    0.3306268930E+01    0.2114075661E+01    0.3904711604E+00    0.3943754435E+01    0.0000000000E+00    0    0
  -16    1    9    9    0    0   -0.5309686996E-02    0.1212279312E-01   -0.2862824500E-01    0.3154509142E-01    0.6031083176E-03    0    0
   24    2    9    9    0    0   -0.1587550735E+02    0.3032965851E+02   -0.1847673655E+01    0.3431234360E+02    0.1415291905E+01    0    0
  310    1   14   14    0    0   -0.9468743324E+01    0.1753017807E+02   -0.8895120621E+00    0.1995001793E+02    0.4977200925E+00    0    0
  211    1   14   14    0    0   -0.6961951256E+00    0.1473129153E+01   -0.1556206793E+00    0.1642709374E+01    0.1395678967E+00    0    0
  310    1   14   14    0    0   -0.5710569859E+01    0.1132635307E+02   -0.8025410175E+00    0.1271961784E+02    0.4977200031E+00    0    0
</event>
<event>
   19 9999    1    0.9119999695E+02    0.7565275169E-02    0.1185000000E+00
   11   -1    0    0    0    0    0.0000000000E+00    0.0000000000E+00    0.8000000000E+02    0.8000000000E+02    0.5109988851E-03    0    0
  -11   -1    0    0    0    0    0.0000000000E+00    0.0000000000E+00   -0.8000000000E+02    0.8000000000E+02    0.5109988851E-03    0    0
  -24    2    1    2    0    0    0.2217264366E+02    0.1123354435E+02    0.2243391037E+01    0.8577951813E+02    0.8206871796E+02    0    0
   24    2    1    2    0    0   -0.2217264366E+02   -0.1123354435E+02   -0.2243391037E+01    0.7422048187E+02    0.6989869690E+02    0    0
   15    2    3    3    0    0    0.4907955933E+02    0.1312302589E+02   -0.1153143597E+02    0.5212627792E+02    0.1777029991E+01    0    0
  -16    1    3    3    0    0   -0.2837969589E+02   -0.2677065849E+01    0.1431467056E+02    0.3189801979E+02    0.0000000000E+00    0    0
   22    1    3    3    0    0    0.1472779274E+01    0.7875844836E+00   -0.5398442149E+00    0.1755220771E+01    0.0000000000E+00    0    0
   16    1    4    4    0    0    0.2023433113E+02   -0.4977311611E+01    0.1729338455E+02    0.2707882690E+02    0.0000000000E+00    0    0
  -15    2    4    4    0    0   -0.4240697479E+02   -0.6256232738E+01   -0.1953677559E+02    0.4714165115E+02    0.1777029991E+01    0    0
   16    1    5    5    0    0    0.1985198736E+01    0.3546071351E+00   -0.2530407012E+00    0.2032434464E+01    0.3112194536E-03    0    0
  -24    2    5    5    0    0    0.4709637833E+02    0.1276895714E+02   -0.1127886868E+02    0.5009598923E+02    0.1131265044E+01    0    0
 -211    1   11   11    0    0    0.5162374020E+01    0.1590260983E+01   -0.1158010244E+01    0.5526255608E+01    0.1395683438E+00    0    0
  111    1   11   11    0    0    0.6049714088E+01    0.1860354066E+01   -0.1424412608E+01    0.6489000320E+01    0.1349641830E+00    0    0
   22    1   11   11    0    0    0.3588430023E+02    0.9318344116E+01   -0.8696447372E+01    0.3808073807E+02    0.1930101134E-03    0    0
  -16    1    9    9    0    0   -0.1380572438E+01    0.7499774802E-03   -0.5885010958E+00    0.1500771284E+01    0.4797427391E-03    0    0
   24    2    9    9    0    0   -0.4102807236E+02   -0.6257228851E+01   -0.1894904327E+02    0.4564273453E+02    0.1318177462E+01    0    0
  211    1   16   16    0    0   -0.1169323254E+02   -0.1634554982E+01   -0.5810597897E+01    0.1316001415E+02    0.1395677924E+00    0    0
  111    1   16   16    0    0   -0.4459844589E+01   -0.7867667675E+00   -0.2265561819E+01    0.5065589905E+01    0.1349641830E+00    0    0
   22    1   16   16    0    0   -0.2487499237E+02   -0.3835906744E+01   -0.1087288189E+02    0.2741712952E+02    0.1726334885E-03    0    0
</event>
<event>
   22 9999    1    0.9119999695E+02    0.7565275169E-02    0.1185000000E+00
   11   -1    0    0    0    0    0.0000000000E+00    0.0000000000E+00    0.8000000000E+02    0.8000000000E+02    0.5109988851E-03    0    0
  -11   -1    0    0    0    0    0.0000000000E+00    0.0000000000E+00   -0.8000000000E+02    0.8000000000E+02    0.5109988851E-03    0    0
  -24    2    1    2    0    0   -0.1046539688E+02    0.2635951042E+01   -0.5203917980E+01    0.8103347778E+02    0.8014281464E+02    0    0
   24    2    1    2    0    0    0.1046534824E+02   -0.2635828972E+01    0.5204196453E+01    0.7896621704E+02    0.7805196381E+02    0    0
   22    1    1    2    0    0    0.4826725853E-04   -0.1220290651E-03   -0.2780972864E-03    0.3075043496E-03    0.0000000000E+00    0    0
   15    2    3    3    0    0    0.7739034653E+01   -0.3648123169E+02   -0.6355011940E+01    0.3787237930E+02    0.1777029991E+01    0    0
  -16    1    3    3    0    0   -0.1820443153E+02    0.3911718369E+02    0.1151093721E+01    0.4316109848E+02    0.0000000000E+00    0    0
   16    1    4    4    0    0    0.6482916355E+01   -0.1180638790E+02    0.4026834869E+02    0.4246126556E+02    0.0000000000E+00    0    0
  -15    2    4    4    0    0    0.3982431889E+01    0.9170558929E+01   -0.3506415176E+02    0.3650495148E+02    0.1777029991E+01    0    0
   16    1    6    6    0    0    0.6709184498E-01   -0.1148862600E+01   -0.2469078898E+00    0.1177008986E+01    0.8217109280E-04    0    0
  -24    2    6    6    0    0    0.7672247410E+01   -0.3533380508E+02   -0.6108354092E+01    0.3669686127E+02    0.1416434765E+01    0    0
 -211    1   11   11    0    0    0.1697140694E+01   -0.7939786911E+01   -0.1340006828E+01    0.8230163574E+01    0.1395680159E+00    0    0
 -211    1   11   11    0    0    0.1066022396E+01   -0.5420683861E+01   -0.9154176712E+00    0.5601578712E+01    0.1395680159E+00    0    0
  211    1   11   11    0    0    0.1057473540E+01   -0.3952932596E+01   -0.6775328517E+00    0.4149994850E+01    0.1395679861E+00    0    0
  111    1   11   11    0    0    0.4852804840E+00   -0.1607128978E+01   -0.2797659636E+00    0.1707291722E+01    0.1349640340E+00    0    0
  111    1   11   11    0    0    0.8694463372E+00   -0.4793729305E+01   -0.8757978678E+00    0.4951869965E+01    0.1349640191E+00    0    0
  111    1   11   11    0    0    0.2496884346E+01   -0.1161954594E+02   -0.2019833088E+01    0.1205596256E+02    0.1349640489E+00    0    0
  -16    1    9    9    0    0    0.1929345012E+01    0.4474153996E+01   -0.1724809456E+02    0.1792308998E+02    0.3890243242E-03    0    0
   24    2    9    9    0    0    0.2053243637E+01    0.4696765423E+01   -0.1781743813E+02    0.1858329773E+02    0.1265878797E+01    0    0
  321    1   19   19    0    0    0.5299501419E+00    0.1289315104E+01   -0.5228539944E+01    0.5433646679E+01    0.4936671257E+00    0    0
  211    1   19   19    0    0    0.4362903237E+00    0.7087763548E+00   -0.2549905062E+01    0.2685927868E+01    0.1395680308E+00    0    0
 -321    1   19   19    0    0    0.1087002993E+01    0.2698674202E+01   -0.1003899384E+02    0.1046372414E+02    0.4936670363E+00    0    0
</event>
<event>
   23 9999    1    0.9119999695E+02    0.7565275169E-02    0.1185000000E+00
   11   -1    0    0    0    0    0.0000000000E+00    0.0000000000E+00    0.8000000000E+02    0.8000000000E+02    0.5109988851E-03    0    0
  -11   -1    0    0    0    0    0.0000000000E+00    0.0000000000E+00   -0.8000000000E+02    0.8000000000E+02    0.5109988851E-03    0    0
  -24    2    1    2    0    0   -0.3097030401E+01   -0.3994014561E+00    0.7584886551E+01    0.8265230560E+02    0.8224427795E+02    0    0
   24    2    1    2    0    0    0.3122343302E+01    0.3879267275E+00   -0.7349023342E+01    0.7711016846E+02    0.7669465637E+02    0    0
   22    1    1    2    0    0   -0.2503442764E-01    0.1151164901E-01   -0.2275961041E+00    0.2292579859E+00    0.0000000000E+00    0    0
   22    1    1    2    0    0   -0.2784826793E-03   -0.3692001701E-04   -0.8267040364E-02    0.8271812461E-02    0.0000000000E+00    0    0
   15    2    3    3    0    0   -0.3507779694E+02    0.3927872658E+01    0.2745563507E+02    0.4475320816E+02    0.1777029991E+01    0    0
  -16    1    3    3    0    0    0.3198076630E+02   -0.4327273846E+01   -0.1987074852E+02    0.3789909363E+02    0.0000000000E+00    0    0
   16    1    4    4    0    0   -0.2176871681E+02    0.6342410564E+01    0.2634642029E+02    0.3475970459E+02    0.0000000000E+00    0    0
  -15    2    4    4    0    0    0.2489106178E+02   -0.5954483986E+01   -0.3369544220E+02    0.4235046005E+02    0.1777029991E+01    0    0
   16    1    7    7    0    0   -0.3763889551E+01    0.6908752918E+00    0.3131052017E+01    0.4944457531E+01    0.1220703125E-03    0    0
  -24    2    7    7    0    0   -0.3131528854E+02    0.3237151861E+01    0.2432566261E+02    0.3981051254E+02    0.1418677330E+01    0    0
 -211    1   12   12    0    0   -0.1687868881E+02    0.1849763632E+01    0.1309413242E+02    0.2144265747E+02    0.1395679116E+00    0    0
 -211    1   12   12    0    0   -0.2405635595E+01    0.4036950171E+00    0.1946610332E+01    0.3123911619E+01    0.1395679563E+00    0    0
  211    1   12   12    0    0   -0.2446319580E+01    0.2683268785E+00    0.1904365420E+01    0.3114894152E+01    0.1395679861E+00    0    0
  111    1   12   12    0    0   -0.1615120053E+01    0.1440086663E+00    0.1193219185E+01    0.2017755747E+01    0.1349639893E+00    0    0
  111    1   12   12    0    0   -0.3926745415E+01    0.2064858526E+00    0.3134169102E+01    0.5030228138E+01    0.1349639297E+00    0    0
  111    1   12   12    0    0   -0.4042778492E+01    0.3648716509E+00    0.3053166628E+01    0.5081065655E+01    0.1349639744E+00    0    0
  -16    1   10   10    0    0    0.2531753480E+00   -0.3323829733E-03   -0.2342180610E+00    0.3449006975E+00    0.7327396888E-03    0    0
   24    2   10   10    0    0    0.2463886452E+02   -0.5954385281E+01   -0.3346255112E+02    0.4200722504E+02    0.1528519273E+01    0    0
  130    1   20   20    0    0    0.1241736031E+02   -0.3116271496E+01   -0.1654323769E+02    0.2092435074E+02    0.4977200329E+00    0    0
  211    1   20   20    0    0    0.2061203957E+01   -0.7120540142E+00   -0.3053572416E+01    0.3754912376E+01    0.1395679712E+00    0    0
  310    1   20   20    0    0    0.1016029835E+02   -0.2126059771E+01   -0.1386573792E+02    0.1732796097E+02    0.4977199435E+00    0    0
</event>
<event>
   19 9999    1    0.9119999695E+02    0.7565275169E-02    0.1185000000E+00
   11   -1    0    0    0    0    0.0000000000E+00    0.0000000000E+00    0.8000000000E+02    0.8000000000E+02    0.5109988851E-03    0    0
  -11   -1    0    0    0    0    0.0000000000E+00    0.0000000000E+00   -0.8000000000E+02    0.8000000000E+02    0.5109988851E-03    0    0
  -24    2    1    2    0    0   -0.4169176579E+01    0.7866204262E+01   -0.4094710827E+01    0.7734674072E+02    0.7672348022E+02    0    0
   24    2    1    2    0    0    0.4169176579E+01   -0.7866204262E+01    0.4094710827E+01    0.8265325928E+02    0.8207031250E+02    0    0
   15    2    3    3    0    0    0.1527677155E+02   -0.2962606430E+02   -0.9651422501E+01    0.3474753571E+02    0.1777029991E+01    0    0
  -16    1    3    3    0    0   -0.1944594765E+02    0.3749226761E+02    0.5556711197E+01    0.4259920120E+02    0.0000000000E+00    0    0
   16    1    4    4    0    0    0.2769226432E+00   -0.1376377487E+02    0.4192517090E+02    0.4412752151E+02    0.0000000000E+00    0    0
  -15    2    4    4    0    0    0.3892253876E+01    0.5897570133E+01   -0.3783046341E+02    0.3852574158E+02    0.1777029991E+01    0    0
   16    1    5    5    0    0    0.6372639179E+01   -0.1241865921E+02   -0.4504586220E+01    0.1466713810E+02    0.2441406250E-03    0    0
  -24    2    5    5    0    0    0.8904733658E+01   -0.1720857048E+02   -0.5147215843E+01    0.2008176422E+02    0.1163733125E+01    0    0
 -211    1   10   10    0    0    0.1123644233E+01   -0.2646363974E+01   -0.7571360469E+00    0.2976332188E+01    0.1395683438E+00    0    0
 -211    1   10   10    0    0    0.1109452248E+01   -0.2244037151E+01   -0.6065390110E+00    0.2579526186E+01    0.1395683885E+00    0    0
  211    1   10   10    0    0    0.1889634132E+01   -0.4008199692E+01   -0.1071369529E+01    0.4561106682E+01    0.1395680010E+00    0    0
  111    1   10   10    0    0    0.4782001495E+01   -0.8309967041E+01   -0.2712170601E+01    0.9964797020E+01    0.1349641234E+00    0    0
  -16    1    8    8    0    0    0.9006924629E+00    0.1670811415E+01   -0.9012321472E+01    0.9210038185E+01    0.8631674427E-04    0    0
   24    2    8    8    0    0    0.2991714954E+01    0.4226991177E+01   -0.2881962967E+02    0.2931722069E+02    0.1452745080E+01    0    0
  221    1   16   16    0    0    0.2017204762E+01    0.2469731092E+01   -0.1837280464E+02    0.1865555763E+02    0.5487999916E+00    0    0
  211    1   16   16    0    0    0.6603692770E+00    0.1030935407E+01   -0.7768345833E+01    0.7865468025E+01    0.1395679563E+00    0    0
  111    1   16   16    0    0    0.3141407371E+00    0.7263240814E+00   -0.2678477526E+01    0.2796191692E+01    0.1349639297E+00    0    0
</event>
<event>
   16 9999    1    0.9119999695E+02    0.7565275169E-02    0.1185000000E+00
   11   -1    0    0    0    0    0.0000000000E+00    0.0000000000E+00    0.8000000000E+02    0.8000000000E+02    0.5109988851E-03    0    0
  -11   -1    0    0    0    0    0.0000000000E+00    0.0000000000E+00   -0.8000000000E+02    0.8000000000E+02    0.5109988851E-03    0    0
  -24    2    1    2    0    0    0.9720056534E+01   -0.4160126686E+01    0.8007597923E+01    0.8132254791E+02    0.8023371887E+02    0    0
   24    2    1    2    0    0   -0.9720056534E+01    0.4160126686E+01   -0.8007597923E+01    0.7867745209E+02    0.7755149078E+02    0    0
   15    2    3    3    0    0   -0.1314634991E+02    0.2230004692E+02   -0.2293228531E+02    0.3462897873E+02    0.1777029991E+01    0    0
  -16    1    3    3    0    0    0.2286640549E+02   -0.2646017456E+02    0.3093988228E+02    0.4669357300E+02    0.0000000000E+00    0    0
   16    1    4    4    0    0   -0.2451430511E+02    0.2811097336E+02    0.1699132538E+02    0.4098637772E+02    0.0000000000E+00    0    0
  -15    2    4    4    0    0    0.1479424858E+02   -0.2395084763E+02   -0.2499892235E+02    0.3769107056E+02    0.1777029991E+01    0    0
   16    1    5    5    0    0   -0.3756782770E+01    0.5704397202E+01   -0.5976385593E+01    0.9075833321E+01    0.5281392951E-03    0    0
  -24    2    5    5    0    0   -0.9390084267E+01    0.1659652710E+02   -0.1695680046E+02    0.2555450630E+02    0.1371618032E+01    0    0
  111    1   10   10    0    0   -0.3673096418E+01    0.6134442329E+01   -0.6258621693E+01    0.9503240585E+01    0.1349639148E+00    0    0
  111    1   10   10    0    0   -0.9546093941E+00    0.1561891794E+01   -0.1288516045E+01    0.2242604256E+01    0.1349638999E+00    0    0
 -321    1   10   10    0    0   -0.4762378693E+01    0.8900193214E+01   -0.9409662247E+01    0.1380866146E+02    0.4936669469E+00    0    0
  -16    1    8    8    0    0    0.5240516186E+01   -0.9234260559E+01   -0.9994992256E+01    0.1458199120E+02    0.2114319796E-03    0    0
  -11    1    8    8    0    0    0.8879940987E+01   -0.1379539776E+02   -0.1433207607E+02    0.2178473663E+02    0.5560567370E-03    0    0
   12    1    8    8    0    0    0.6743749380E+00   -0.9221329093E+00   -0.6728394032E+00    0.1325829387E+01    0.2441406250E-03    0    0
</event>
<event>
   20 9999    1    0.9119999695E+02    0.7565275169E-02    0.1185000000E+00
   11   -1    0    0    0    0    0.0000000000E+00    0.0000000000E+00    0.8000000000E+02    0.8000000000E+02    0.5109988851E-03    0    0
  -11   -1    0    0    0    0    0.0000000000E+00    0.0000000000E+00   -0.8000000000E+02    0.8000000000E+02    0.5109988851E-03    0    0
  -24    2    1    2    0    0   -0.1592658997E+02   -0.4085364819E+01    0.1002547073E+02    0.8187051392E+02    0.7957338715E+02    0    0
   24    2    1    2    0    0    0.1592658997E+02    0.4085364819E+01   -0.1002547073E+02    0.7812948608E+02    0.7571895599E+02    0    0
   15    2    3    3    0    0   -0.2504589319E+01    0.1541230011E+02    0.3873120117E+02    0.4179804230E+02    0.1777029991E+01    0    0
  -16    1    3    3    0    0   -0.1316297245E+02   -0.2022587967E+02   -0.3003880310E+02    0.3853153992E+02    0.0000000000E+00    0    0
   22    1    3    3    0    0   -0.2590280771E+00    0.7282134891E+00    0.1333071589E+01    0.1540931702E+01    0.0000000000E+00    0    0
   16    1    4    4    0    0   -0.2128496170E+02    0.1042611980E+02    0.1908288002E+02    0.3042876625E+02    0.0000000000E+00    0    0
  -15    2    4    4    0    0    0.3721155167E+02   -0.6340754986E+01   -0.2910835075E+02    0.4770071793E+02    0.1777029991E+01    0    0
   16    1    5    5    0    0   -0.3129573539E-01    0.3668993339E-01    0.6012142077E-01    0.7707414776E-01    0.4988582805E-03    0    0
  -24    2    5    5    0    0   -0.2473398447E+01    0.1537625885E+02    0.3867270660E+02    0.4172272873E+02    0.1630901933E+01    0    0
  221    1   11   11    0    0   -0.1657202125E+01    0.9565903664E+01    0.2469558907E+02    0.2654103279E+02    0.5487998724E+00    0    0
 -211    1   11   11    0    0   -0.6463639140E+00    0.1969166160E+01    0.5090279102E+01    0.5497802734E+01    0.1395677179E+00    0    0
  111    1   11   11    0    0   -0.1698322594E+00    0.3841186762E+01    0.8886836052E+01    0.9683887482E+01    0.1349642277E+00    0    0
  -16    1    9    9    0    0    0.2297559166E+02   -0.3548924446E+01   -0.1814611435E+02    0.2949159431E+02    0.2862802648E-03    0    0
   24    2    9    9    0    0    0.1423742390E+02   -0.2792080402E+01   -0.1096338272E+02    0.1821100235E+02    0.9720626473E+00    0    0
  111    1   16   16    0    0    0.2456078529E+01   -0.4182594419E+00   -0.1797245979E+01    0.3074991226E+01    0.1349639893E+00    0    0
  111    1   16   16    0    0    0.4070012569E+01   -0.8756377101E+00   -0.3005519629E+01    0.5136448860E+01    0.1349638700E+00    0    0
  111    1   16   16    0    0    0.6644940376E+01   -0.1393877864E+01   -0.5434649467E+01    0.8697801590E+01    0.1349639148E+00    0    0
  211    1   16   16    0    0    0.1066393375E+01   -0.1043054834E+00   -0.7259673476E+00    0.1301761270E+01    0.1395679414E+00    0    0
</event>
<event>
   26 9999    1    0.9119999695E+02    0.7565275169E-02    0.1185000000E+00
   11   -1    0    0    0    0    0.0000000000E+00    0.0000000000E+00    0.8000000000E+02    0.8000000000E+02    0.5109988851E-03    0    0
  -11   -1    0    0    0    0    0.0000000000E+00    0.0000000000E+00   -0.8000000000E+02    0.8000000000E+02    0.5109988851E-03    0    0
  -24    2    1    2    0    0    0.1337938023E+02   -0.6119277954E+01    0.7371383190E+01    0.8107247925E+02    0.7938485718E+02    0    0
   24    2    1    2    0    0   -0.1334703159E+02    0.5987738132E+01   -0.6706084728E+01    0.7821098328E+02    0.7653750610E+02    0    0
   22    1    1    2    0    0   -0.3226308897E-01    0.1316086799E+00   -0.6842762828E+00    0.6975641847E+00    0.0000000000E+00    0    0
   22    1    1    2    0    0   -0.8254035492E-04   -0.6756155926E-04    0.1775755547E-01    0.1775787584E-01    0.0000000000E+00    0    0
   22    1    1    2    0    0   -0.2404658971E-05   -0.1071476731E-05    0.6657505874E-03    0.6657558260E-03    0.0000000000E+00    0    0
   22    1    1    2    0    0   -0.1470118605E-07    0.1905504643E-08    0.5546939792E-03    0.5546939792E-03    0.0000000000E+00    0    0
   15    2    3    3    0    0    0.2458736801E+02    0.2513115883E+02    0.2335709572E+02    0.4224720001E+02    0.1777029991E+01    0    0
  -16    1    3    3    0    0   -0.3171289921E+01   -0.2497520828E+02   -0.1096924496E+02    0.2746165276E+02    0.0000000000E+00    0    0
   22    1    3    3    0    0   -0.8036698341E+01   -0.6275228977E+01   -0.5016469002E+01    0.1136362648E+02    0.0000000000E+00    0    0
   16    1    4    4    0    0    0.8257625580E+01    0.2249135017E+02    0.2619100761E+02    0.3549673462E+02    0.0000000000E+00    0    0
  -15    2    4    4    0    0   -0.2160465813E+02   -0.1650361252E+02   -0.3289709473E+02    0.4271424866E+02    0.1777029991E+01    0    0
   16    1    9    9    0    0    0.7524856567E+01    0.6925866604E+01    0.6948183060E+01    0.1236399460E+02    0.4139605735E-03    0    0
*****    2    9    9    0    0    0.1706339836E+02    0.1820621300E+02    0.1640976334E+02    0.2988474083E+02    0.1091585755E+01    0    0
  111    1   15   15    0    0    0.8805395365E+00    0.1021193743E+01    0.9992812872E+00    0.1683735251E+01    0.1349640191E+00    0    0
  111    1   15   15    0    0    0.1175620198E+01    0.1464034915E+01    0.1153118610E+01    0.2207573175E+01    0.1349640340E+00    0    0
 -211    1   15   15    0    0    0.1500723362E+02    0.1572098064E+02    0.1425736046E+02    0.2599342537E+02    0.1395678669E+00    0    0
  -16    1   13   13    0    0   -0.4319747448E+01   -0.3266294241E+01   -0.6156276226E+01    0.8199307442E+01    0.0000000000E+00    0    0
   24    2   13   13    0    0   -0.1728576088E+02   -0.1323796844E+02   -0.2674211311E+02    0.3451662445E+02    0.1488424540E+01    0    0
  211    1   20   20    0    0   -0.1558555841E+01   -0.1107821822E+01   -0.2464210033E+01    0.3122206926E+01    0.1395680159E+00    0    0
  211    1   20   20    0    0   -0.2955789328E+01   -0.2405280828E+01   -0.4320931911E+01    0.5762985229E+01    0.1395680457E+00    0    0
 -211    1   20   20    0    0   -0.1504491806E+01   -0.1266206980E+01   -0.2277162790E+01    0.3011930466E+01    0.1395680308E+00    0    0
  111    1   20   20    0    0   -0.2817118168E+01   -0.2233907938E+01   -0.4237005711E+01    0.5558500767E+01    0.1349640042E+00    0    0
  111    1   20   20    0    0   -0.3094007254E+01   -0.2497094393E+01   -0.5183939934E+01    0.6534509182E+01    0.1349640042E+00    0    0
  111    1   20   20    0    0   -0.5355799675E+01   -0.3727656603E+01   -0.8258863449E+01    0.1052649307E+02    0.1349639595E+00    0    0
</event>
<event>
   18 9999    1    0.9119999695E+02    0.7565275169E-02    0.1185000000E+00
   11   -1    0    0    0    0    0.0000000000E+00    0.0000000000E+00    0.8000000000E+02    0.8000000000E+02    0.5109988851E-03    0    0
  -11   -1    0    0    0    0    0.0000000000E+00    0.0000000000E+00   -0.8000000000E+02    0.8000000000E+02    0.5109988851E-03    0    0
  -24    2    1    2    0    0    0.5095563889E+01    0.1658480316E+00   -0.5937075615E+01    0.8012201691E+02    0.7973892212E+02    0    0
   24    2    1    2    0    0   -0.5095563889E+01   -0.1658480316E+00    0.5937075615E+01    0.7987798309E+02    0.7949372101E+02    0    0
   15    2    3    3    0    0    0.3954412079E+02    0.9170047760E+01    0.8821029663E+01    0.4157878876E+02    0.1777029991E+01    0    0
  -16    1    3    3    0    0   -0.3444855499E+02   -0.9004199028E+01   -0.1475810528E+02    0.3854322815E+02    0.0000000000E+00    0    0
   16    1    4    4    0    0    0.3620344925E+02    0.2462875366E+01    0.1154484463E+02    0.3807937622E+02    0.0000000000E+00    0    0
  -15    2    4    4    0    0   -0.4129901505E+02   -0.2628723383E+01   -0.5607768536E+01    0.4179860687E+02    0.1777029991E+01    0    0
   16    1    5    5    0    0    0.1719660759E+02    0.4291731834E+01    0.3970556021E+01    0.1816335869E+02    0.9155273438E-04    0    0
  -24    2    5    5    0    0    0.2234906769E+02    0.4878676414E+01    0.4850820541E+01    0.2341706467E+02    0.1243442655E+01    0    0
 -321    1   10   10    0    0    0.1037814522E+02    0.1892064214E+01    0.2160301685E+01    0.1077944469E+02    0.4936668873E+00    0    0
  130    1   10   10    0    0    0.1197092628E+02    0.2986613035E+01    0.2690519810E+01    0.1263762474E+02    0.4977199733E+00    0    0
  -16    1    8    8    0    0   -0.1852649879E+02   -0.1125526667E+01   -0.2776637077E+01    0.1876719666E+02    0.5390478764E-03    0    0
   24    2    8    8    0    0   -0.2277413940E+02   -0.1503300071E+01   -0.2831352234E+01    0.2303305626E+02    0.1258465767E+01    0    0
  111    1   14   14    0    0   -0.4270762444E+01   -0.1344325244E+00   -0.7040826082E+00    0.4332601070E+01    0.1349635422E+00    0    0
  111    1   14   14    0    0   -0.9923595428E+01   -0.3927769065E+00   -0.1336357236E+01    0.1002178001E+02    0.1349643022E+00    0    0
  111    1   14   14    0    0   -0.3052489519E+01   -0.4519461393E+00   -0.2852681577E+00    0.3101861000E+01    0.1349638999E+00    0    0
  211    1   14   14    0    0   -0.5527293682E+01   -0.5241447687E+00   -0.5056443810E+00    0.5576814651E+01    0.1395680010E+00    0    0
</event>
<event>
   21 9999    1    0.9119999695E+02    0.7565275169E-02    0.1185000000E+00
   11   -1    0    0    0    0    0.0000000000E+00    0.0000000000E+00    0.8000000000E+02    0.8000000000E+02    0.5109988851E-03    0    0
  -11   -1    0    0    0    0    0.0000000000E+00    0.0000000000E+00   -0.8000000000E+02    0.8000000000E+02    0.5109988851E-03    0    0
  -24    2    1    2    0    0    0.4238634109E+02   -0.1288562393E+02    0.2227784920E+02    0.7178768921E+02    0.5190884781E+02    0    0
   24    2    1    2    0    0   -0.4237534332E+02    0.1289057636E+02   -0.2291593742E+02    0.8757410431E+02    0.7198783112E+02    0    0
   22    1    1    2    0    0   -0.1100008655E-01   -0.4952165298E-02    0.6369559765E+00    0.6370701790E+00    0.0000000000E+00    0    0
   22    1    1    2    0    0   -0.4343422120E-06    0.1019649005E-06    0.1131028170E-02    0.1131028170E-02    0.0000000000E+00    0    0
   15    2    3    3    0    0    0.4917674255E+02   -0.8227178574E+01    0.3182645226E+02    0.5917870712E+02    0.1777029991E+01    0    0
  -16    1    3    3    0    0   -0.6790400028E+01   -0.4658445358E+01   -0.9548603058E+01    0.1260898399E+02    0.0000000000E+00    0    0
   16    1    4    4    0    0   -0.3667100525E+02   -0.2178739166E+02    0.4602769375E+01    0.4290266418E+02    0.0000000000E+00    0    0
  -15    2    4    4    0    0   -0.5704338074E+01    0.3467796707E+02   -0.2751870537E+02    0.4467144394E+02    0.1777029991E+01    0    0
   16    1    7    7    0    0    0.4119798183E+01   -0.1010322332E+01    0.2486453533E+01    0.4916903496E+01    0.4315837214E-04    0    0
  -24    2    7    7    0    0    0.4505887985E+02   -0.7217180729E+01    0.2934125328E+02    0.5426413345E+02    0.1138743162E+01    0    0
 -321    1   12   12    0    0    0.2742418289E+02   -0.4385180473E+01    0.1815284920E+02    0.3318260574E+02    0.4936670661E+00    0    0
  310    1   12   12    0    0    0.1763470078E+02   -0.2832000256E+01    0.1118840504E+02    0.2108153343E+02    0.4977199435E+00    0    0
  -16    1   10   10    0    0   -0.8134968877E+00    0.7070406914E+01   -0.5748585224E+01    0.9148692131E+01    0.4055796599E-03    0    0
   24    2   10   10    0    0   -0.4015222073E+01    0.2377767754E+02   -0.1834227180E+02    0.3030884171E+02    0.8287727237E+00    0    0
   22    1   10   10    0    0   -0.8756188750E+00    0.3829883099E+01   -0.3427848577E+01    0.5213910103E+01    0.0000000000E+00    0    0
  211    1   16   16    0    0   -0.1008141756E+01    0.6573355675E+01   -0.5026197910E+01    0.8337116241E+01    0.1395680755E+00    0    0
  211    1   16   16    0    0   -0.1123407245E+01    0.6657738209E+01   -0.5159631252E+01    0.8498752594E+01    0.1395680010E+00    0    0
 -211    1   16   16    0    0   -0.2571458519E+00    0.1457666874E+01   -0.1232242107E+01    0.1931014538E+01    0.1395680755E+00    0    0
  111    1   16   16    0    0   -0.1626523376E+01    0.9088887215E+01   -0.6924178600E+01    0.1154191971E+02    0.1349640340E+00    0    0
</event>
<event>
   21 9999    1    0.9119999695E+02    0.7565275169E-02    0.1185000000E+00
   11   -1    0    0    0    0    0.0000000000E+00    0.0000000000E+00    0.8000000000E+02    0.8000000000E+02    0.5109988851E-03    0    0
  -11   -1    0    0    0    0    0.0000000000E+00    0.0000000000E+00   -0.8000000000E+02    0.8000000000E+02    0.5109988851E-03    0    0
  -24    2    1    2    0    0    0.5943394899E+00   -0.1202896386E+00    0.2933647156E+01    0.8093019867E+02    0.8087474060E+02    0    0
   24    2    1    2    0    0   -0.5943394899E+00    0.1202896386E+00   -0.2933647156E+01    0.7906980133E+02    0.7901303101E+02    0    0
   15    2    3    3    0    0    0.4789567471E+01   -0.2676679850E+01    0.4157736206E+02    0.4197546005E+02    0.1777029991E+01    0    0
  -16    1    3    3    0    0   -0.4195228100E+01    0.2556390285E+01   -0.3864371490E+02    0.3895473862E+02    0.0000000000E+00    0    0
   16    1    4    4    0    0   -0.3643611526E+02   -0.1429242992E+02   -0.8351703644E+01    0.4002018356E+02    0.0000000000E+00    0    0
  -15    2    4    4    0    0    0.3584177780E+02    0.1441271973E+02    0.5418056488E+01    0.3904961777E+02    0.1777029991E+01    0    0
   16    1    5    5    0    0    0.1889156103E+01   -0.5265059471E+00    0.1506239796E+02    0.1518953514E+02    0.4464336671E-03    0    0
*****    2    5    5    0    0    0.2900599718E+01   -0.2150279284E+01    0.2651659775E+02    0.2678757858E+02    0.1186241388E+01    0    0
 -211    1   10   10    0    0    0.3329386115E+00    0.4701549187E-02    0.4329623699E+01    0.4344650745E+01    0.1395678818E+00    0    0
 -211    1   10   10    0    0    0.1651743531E+01   -0.1179470778E+01    0.1339631367E+02    0.1354991150E+02    0.1395682991E+00    0    0
  211    1   10   10    0    0    0.9159173369E+00   -0.9755098820E+00    0.8790659904E+01    0.8893014908E+01    0.1395680159E+00    0    0
  -16    1    8    8    0    0    0.8961242676E+01    0.3566801071E+01    0.1633157849E+01    0.9782287598E+01    0.8631674427E-04    0    0
   24    2    8    8    0    0    0.2688194656E+02    0.1084648705E+02    0.3785112143E+01    0.2926886940E+02    0.1433282137E+01    0    0
  211    1   15   15    0    0    0.3801379681E+01    0.1402717113E+01    0.6017103791E+00    0.4098735809E+01    0.1395680308E+00    0    0
  211    1   15   15    0    0    0.2295968294E+01    0.1049908042E+01    0.4096934199E+00    0.2561465502E+01    0.1395680010E+00    0    0
 -211    1   15   15    0    0    0.3842761993E+01    0.1486627460E+01    0.4875140488E+00    0.4151389122E+01    0.1395680010E+00    0    0
  111    1   15   15    0    0    0.2865105867E+01    0.1070294499E+01    0.1541087031E+00    0.3065342903E+01    0.1349640340E+00    0    0
  111    1   15   15    0    0    0.3677472115E+01    0.1479600906E+01    0.4685588479E+00    0.3993843079E+01    0.1349640042E+00    0    0
  111    1   15   15    0    0    0.1039925766E+02    0.4357338905E+01    0.1663526654E+01    0.1139809227E+02    0.1349640042E+00    0    0
</event>
<event>
   20 9999    1    0.9119999695E+02    0.7565275169E-02    0.1185000000E+00
   11   -1    0    0    0    0    0.0000000000E+00    0.0000000000E+00    0.8000000000E+02    0.8000000000E+02    0.5109988851E-03    0    0
  -11   -1    0    0    0    0    0.0000000000E+00    0.0000000000E+00   -0.8000000000E+02    0.8000000000E+02    0.5109988851E-03    0    0
  -24    2    1    2    0    0   -0.1661949730E+02   -0.2748535919E+02    0.4004952908E+01    0.7161612701E+02    0.6388409424E+02    0    0
   24    2    1    2    0    0    0.1649163246E+02    0.2743182755E+02   -0.5222117901E+01    0.8715884399E+02    0.8090064240E+02    0    0
   22    1    1    2    0    0    0.1278653145E+00    0.5353169143E-01    0.1217165112E+01    0.1225033164E+01    0.0000000000E+00    0    0
   15    2    3    3    0    0   -0.1596855521E+01   -0.1209163857E+02    0.1777336311E+02    0.2162886810E+02    0.1777029991E+01    0    0
  -16    1    3    3    0    0   -0.1069656563E+02   -0.8378444672E+01   -0.2935985184E+02    0.3235144043E+02    0.0000000000E+00    0    0
   22    1    3    3    0    0   -0.4326075554E+01   -0.7015276432E+01    0.1559144306E+02    0.1763581848E+02    0.0000000000E+00    0    0
   16    1    4    4    0    0    0.2733117485E+02   -0.5430525303E+01   -0.3268115997E+02    0.4294813156E+02    0.0000000000E+00    0    0
  -15    2    4    4    0    0   -0.1083954239E+02    0.3286235428E+02    0.2745904350E+02    0.4421070862E+02    0.1777029991E+01    0    0
   16    1    6    6    0    0   -0.4629311562E+00   -0.3880311251E+01    0.5894910336E+01    0.7072558403E+01    0.4095784097E-03    0    0
  -24    2    6    6    0    0   -0.1133987546E+01   -0.8211791039E+01    0.1187913609E+02    0.1455713940E+02    0.1441189766E+01    0    0
  221    1   12   12    0    0   -0.2935102582E+00   -0.2543547869E+01    0.3985257387E+01    0.4768568039E+01    0.5487998724E+00    0    0
 -211    1   12   12    0    0   -0.6818482876E+00   -0.2470957756E+01    0.3886389494E+01    0.4657686710E+01    0.1395678818E+00    0    0
  111    1   12   12    0    0   -0.1586287618E+00   -0.3197287321E+01    0.4007491589E+01    0.5130887985E+01    0.1349638999E+00    0    0
  -16    1   10   10    0    0   -0.2061803341E+01    0.7989470959E+01    0.6347151756E+01    0.1041004372E+02    0.6563053466E-04    0    0
20213    2   10   10    0    0   -0.8778165817E+01    0.2487417412E+02    0.2111297226E+02    0.3380240250E+02    0.1031609178E+01    0    0
  211    1   17   17    0    0   -0.2754911900E+01    0.7297611713E+01    0.6470027447E+01    0.1013535404E+02    0.1395683587E+00    0    0
  211    1   17   17    0    0   -0.2443836927E+01    0.7685259342E+01    0.6017042637E+01    0.1006279469E+02    0.1395679116E+00    0    0
 -211    1   17   17    0    0   -0.3579416752E+01    0.9891302109E+01    0.8625901222E+01    0.1360425472E+02    0.1395679116E+00    0    0
</event>
<event>
   20 9999    1    0.9119999695E+02    0.7565275169E-02    0.1185000000E+00
   11   -1    0    0    0    0    0.0000000000E+00    0.0000000000E+00    0.8000000000E+02    0.8000000000E+02    0.5109988851E-03    0    0
  -11   -1    0    0    0    0    0.0000000000E+00    0.0000000000E+00   -0.8000000000E+02    0.8000000000E+02    0.5109988851E-03    0    0
  -24    2    1    2    0    0   -0.6208388329E+01   -0.2028735924E+02   -0.2106010914E+01    0.7749333954E+02    0.7450275421E+02    0    0
   24    2    1    2    0    0    0.6208388329E+01    0.2028735924E+02    0.2106010914E+01    0.8250666046E+02    0.7970441437E+02    0    0
   15    2    3    3    0    0    0.2082653999E+02    0.1162296581E+02    0.1909455681E+02    0.3060388947E+02    0.1777029991E+01    0    0
  -16    1    3    3    0    0   -0.2703492737E+02   -0.3191032410E+02   -0.2120056725E+02    0.4688944626E+02    0.0000000000E+00    0    0
   16    1    4    4    0    0    0.2376728630E+02   -0.2128122520E+02   -0.1361808300E+02    0.3468755722E+02    0.0000000000E+00    0    0
  -15    2    4    4    0    0   -0.1755889893E+02    0.4156858444E+02    0.1572409439E+02    0.4781910706E+02    0.1777029991E+01    0    0
   16    1    5    5    0    0    0.1243185997E+02    0.6673363686E+01    0.1115448666E+02    0.1798631477E+02    0.4167633015E-03    0    0
  -24    2    5    5    0    0    0.8395498276E+01    0.4950059891E+01    0.7940821171E+01    0.1261877918E+02    0.1090615988E+01    0    0
 -211    1   10   10    0    0    0.4364169598E+01    0.2606348038E+01    0.4133651257E+01    0.6553287506E+01    0.1395679712E+00    0    0
 -211    1   10   10    0    0    0.3849647045E+00    0.4079741538E+00    0.5305551887E+00    0.7846073508E+00    0.1395675689E+00    0    0
  211    1   10   10    0    0    0.2516486168E+01    0.1283885837E+01    0.2171592712E+01    0.3566000462E+01    0.1395679712E+00    0    0
  111    1   10   10    0    0    0.1129877806E+01    0.6518517733E+00    0.1105021596E+01    0.1714882731E+01    0.1349640191E+00    0    0
  -16    1    8    8    0    0   -0.3085505247E+01    0.7204861164E+01    0.2344091177E+01    0.8180778503E+01    0.1726334885E-03    0    0
   24    2    8    8    0    0   -0.1447408390E+02    0.3436536026E+02    0.1338062191E+02    0.3964021301E+02    0.1352158546E+01    0    0
  211    1   16   16    0    0   -0.6058382988E+01    0.1450347614E+02    0.5273080349E+01    0.1657949638E+02    0.1395681351E+00    0    0
  211    1   16   16    0    0   -0.2528287172E+01    0.6154531956E+01    0.2262741327E+01    0.7029222965E+01    0.1395678520E+00    0    0
 -211    1   16   16    0    0   -0.1249200225E+01    0.3321940660E+01    0.1483911037E+01    0.3849319696E+01    0.1395680159E+00    0    0
  111    1   16   16    0    0   -0.4638213634E+01    0.1038540840E+02    0.4360889435E+01    0.1218217182E+02    0.1349640638E+00    0    0
</event>
<event>
   18 9999    1    0.9119999695E+02    0.7565275169E-02    0.1185000000E+00
   11   -1    0    0    0    0    0.0000000000E+00    0.0000000000E+00    0.8000000000E+02    0.8000000000E+02    0.5109988851E-03    0    0
  -11   -1    0    0    0    0    0.0000000000E+00    0.0000000000E+00   -0.8000000000E+02    0.8000000000E+02    0.5109988851E-03    0    0
  -24    2    1    2    0    0    0.2162934494E+02   -0.7128564835E+01   -0.1524943924E+02    0.8514333344E+02    0.8061138916E+02    0    0
   24    2    1    2    0    0   -0.2162934494E+02    0.7128564835E+01    0.1524943924E+02    0.7485666656E+02    0.6965866852E+02    0    0
   15    2    3    3    0    0    0.4603116989E+02   -0.9212245941E+01    0.1201977634E+02    0.4849089432E+02    0.1777029991E+01    0    0
  -16    1    3    3    0    0   -0.2440182495E+02    0.2083681583E+01   -0.2726921654E+02    0.3665243530E+02    0.0000000000E+00    0    0
   16    1    4    4    0    0    0.2456442261E+02    0.7686073780E+01    0.1231254768E+02    0.2853218079E+02    0.0000000000E+00    0    0
  -15    2    4    4    0    0   -0.4619376755E+02   -0.5575091243E+00    0.2936892271E+01    0.4632448578E+02    0.1777029991E+01    0    0
   16    1    5    5    0    0    0.3349179077E+02   -0.7014184952E+01    0.8502790451E+01    0.3525898743E+02    0.2729575208E-03    0    0
   11    1    5    5    0    0    0.3335048676E+01   -0.9452753663E+00    0.9982036352E+00    0.3607285261E+01    0.5033087800E-03    0    0
  -12    1    5    5    0    0    0.9206144333E+01   -0.1253148556E+01    0.2519256115E+01    0.9626532555E+01    0.2625221387E-03    0    0
  -16    1    8    8    0    0   -0.3203056335E+01    0.1292161345E+00    0.1882183701E+00    0.3211182594E+01    0.5936237867E-03    0    0
   24    2    8    8    0    0   -0.4299252701E+02   -0.6867471933E+00    0.2748789549E+01    0.4311512756E+02    0.1590360045E+01    0    0
  211    1   13   13    0    0   -0.1348725557E+01    0.9398809075E-01    0.1878864765E+00    0.1372106075E+01    0.1395683736E+00    0    0
  211    1   13   13    0    0   -0.5256923199E+01   -0.5473286845E-02    0.3735553920E+00    0.5272029400E+01    0.1395678818E+00    0    0
 -211    1   13   13    0    0   -0.4009432316E+01   -0.2213401645E+00    0.3699635267E+00    0.4034958363E+01    0.1395680010E+00    0    0
  111    1   13   13    0    0   -0.1715106392E+02   -0.1428050995E+00    0.8862709403E+00    0.1717507172E+02    0.1349641234E+00    0    0
  111    1   13   13    0    0   -0.1522638130E+02   -0.4111166894E+00    0.9311130047E+00    0.1526095963E+02    0.1349642128E+00    0    0
</event>
<event>
   18 9999    1    0.9119999695E+02    0.7565275169E-02    0.1185000000E+00
   11   -1    0    0    0    0    0.0000000000E+00    0.0000000000E+00    0.8000000000E+02    0.8000000000E+02    0.5109988851E-03    0    0
  -11   -1    0    0    0    0    0.0000000000E+00    0.0000000000E+00   -0.8000000000E+02    0.8000000000E+02    0.5109988851E-03    0    0
  -24    2    1    2    0    0    0.1291121006E+02   -0.1215664196E+02    0.7910794735E+01    0.7622139740E+02    0.7370642853E+02    0    0
   24    2    1    2    0    0   -0.1291121101E+02    0.1215663910E+02   -0.7898160458E+01    0.8376596832E+02    0.8148542023E+02    0    0
   22    1    1    2    0    0    0.1225423944E-05    0.2388230314E-05   -0.1263431087E-01    0.1263431087E-01    0.0000000000E+00    0    0
   15    2    3    3    0    0    0.4357078552E+02   -0.3997991085E+01    0.7889046192E+01    0.4449485397E+02    0.1777029991E+01    0    0
  -16    1    3    3    0    0   -0.3065957451E+02   -0.8158650398E+01    0.2174866013E-01    0.3172654343E+02    0.0000000000E+00    0    0
   16    1    4    4    0    0    0.2890014410E+01   -0.3416451645E+02   -0.9366561770E+00    0.3429932785E+02    0.0000000000E+00    0    0
  -15    2    4    4    0    0   -0.1580122566E+02    0.4632115555E+02   -0.6961504459E+01    0.4946664429E+02    0.1777029991E+01    0    0
   16    1    6    6    0    0    0.3174576569E+02   -0.3487390041E+01    0.6058643341E+01    0.3250634766E+02    0.2862802648E-03    0    0
 -213    2    6    6    0    0    0.1182673359E+02   -0.5107582808E+00    0.1830713272E+01    0.1199025726E+02    0.5312778950E+00    0    0
 -211    1   11   11    0    0    0.1031313324E+02   -0.3557039499E+00    0.1521210074E+01    0.1043172073E+02    0.1395679265E+00    0    0
  111    1   11   11    0    0    0.1513598919E+01   -0.1550542861E+00    0.3095029294E+00    0.1558534861E+01    0.1349639297E+00    0    0
  -16    1    9    9    0    0   -0.4137121677E+01    0.1184094906E+02   -0.1866515756E+01    0.1268099880E+02    0.6619571359E-03    0    0
   24    2    9    9    0    0   -0.1166472530E+02    0.3448202896E+02   -0.5095262527E+01    0.3678759003E+02    0.1512879610E+01    0    0
  130    1   15   15    0    0   -0.4881212711E+01    0.1367752361E+02   -0.2071860313E+01    0.1467791557E+02    0.4977200329E+00    0    0
  211    1   15   15    0    0   -0.4102033615E+01    0.1305891037E+02   -0.2016303778E+01    0.1383642960E+02    0.1395685375E+00    0    0
  130    1   15   15    0    0   -0.2681477070E+01    0.7745591164E+01   -0.1007097721E+01    0.8273238182E+01    0.4977200329E+00    0    0
</event>
<event>
   22 9999    1    0.9119999695E+02    0.7565275169E-02    0.1185000000E+00
   11   -1    0    0    0    0    0.0000000000E+00    0.0000000000E+00    0.8000000000E+02    0.8000000000E+02    0.5109988851E-03    0    0
  -11   -1    0    0    0    0    0.0000000000E+00    0.0000000000E+00   -0.8000000000E+02    0.8000000000E+02    0.5109988851E-03    0    0
  -24    2    1    2    0    0    0.9485870600E+00    0.5797721863E+01    0.5833882809E+01    0.7958859253E+02    0.7915678406E+02    0    0
   24    2    1    2    0    0   -0.9464182258E+00   -0.5801107407E+01   -0.5939524651E+01    0.8030533600E+02    0.7986939240E+02    0    0
   22    1    1    2    0    0   -0.2214128850E-02    0.3617916489E-02    0.1036629900E+00    0.1037497297E+00    0.0000000000E+00    0    0
   22    1    1    2    0    0    0.3490822201E-04   -0.2302459907E-03    0.2143761609E-02    0.2156373346E-02    0.0000000000E+00    0    0
   22    1    1    2    0    0    0.1038479058E-04   -0.2320615977E-05   -0.1650531922E-03    0.1653958461E-03    0.0000000000E+00    0    0
   15    2    3    3    0    0    0.5976417065E+01    0.8518589973E+01    0.4182990646E+02    0.4314142990E+02    0.1777029991E+01    0    0
  -16    1    3    3    0    0   -0.5027830124E+01   -0.2720867872E+01   -0.3599602509E+02    0.3644716644E+02    0.0000000000E+00    0    0
   16    1    4    4    0    0    0.2677976990E+02   -0.2484972954E+01   -0.3218461227E+02    0.4194258499E+02    0.0000000000E+00    0    0
  -15    2    4    4    0    0   -0.2772618675E+02   -0.3316134453E+01    0.2624508667E+02    0.3836275101E+02    0.1777029991E+01    0    0
   16    1    8    8    0    0    0.2386086702E+01    0.3369673729E+01    0.1626085281E+02    0.1677687263E+02    0.3466130584E-03    0    0
  -24    2    8    8    0    0    0.3590565443E+01    0.5149250984E+01    0.2557069969E+02    0.2636625290E+02    0.1382643223E+01    0    0
 -211    1   13   13    0    0    0.4204773009E+00    0.8651015759E+00    0.3584960699E+01    0.3714380741E+01    0.1395677924E+00    0    0
 -211    1   13   13    0    0    0.8017838597E+00    0.1579872608E+01    0.8299354553E+01    0.8487497330E+01    0.1395681202E+00    0    0
  211    1   13   13    0    0    0.6934815645E+00    0.8747617006E+00    0.4872675896E+01    0.5000857353E+01    0.1395680010E+00    0    0
  111    1   13   13    0    0    0.3511699736E+00    0.3558517098E+00    0.1611784816E+01    0.1692931294E+01    0.1349640340E+00    0    0
  111    1   13   13    0    0    0.1323653340E+01    0.1473664403E+01    0.7201928139E+01    0.7470591068E+01    0.1349638551E+00    0    0
  -16    1   11   11    0    0   -0.2878194332E+01   -0.2390121855E-01    0.3010213852E+01    0.4164848328E+01    0.1057159898E-03    0    0
   24    2   11   11    0    0   -0.2484908485E+02   -0.3292363882E+01    0.2323590660E+02    0.3419941330E+02    0.1172953129E+01    0    0
  321    1   20   20    0    0   -0.1520987034E+02   -0.1744424582E+01    0.1405511951E+02    0.2078877640E+02    0.4936670959E+00    0    0
  130    1   20   20    0    0   -0.9639211655E+01   -0.1547938824E+01    0.9180783272E+01    0.1341063023E+02    0.4977199733E+00    0    0
</event>
<event>
   18 9999    1    0.9119999695E+02    0.7565275169E-02    0.1185000000E+00
   11   -1    0    0    0    0    0.0000000000E+00    0.0000000000E+00    0.8000000000E+02    0.8000000000E+02    0.5109988851E-03    0    0
  -11   -1    0    0    0    0    0.0000000000E+00    0.0000000000E+00   -0.8000000000E+02    0.8000000000E+02    0.5109988851E-03    0    0
  -24    2    1    2    0    0    0.2204025745E+01   -0.6104835272E+00   -0.6142465591E+01    0.7908910370E+02    0.7881703949E+02    0    0
   24    2    1    2    0    0   -0.2204025745E+01    0.6104835272E+00    0.6142465591E+01    0.8091089630E+02    0.8064498138E+02    0    0
   15    2    3    3    0    0   -0.3183760452E+02   -0.2174039268E+02   -0.2655611932E+00    0.3859412003E+02    0.1777029991E+01    0    0
  -16    1    3    3    0    0    0.3404162979E+02    0.2112990952E+02   -0.5876904488E+01    0.4049498367E+02    0.0000000000E+00    0    0
   16    1    4    4    0    0   -0.4076386261E+02    0.7231670856E+01    0.5291392326E+01    0.4173713684E+02    0.0000000000E+00    0    0
  -15    2    4    4    0    0    0.3855983734E+02   -0.6621187210E+01    0.8510732651E+00    0.3917375946E+02    0.1777029991E+01    0    0
   16    1    5    5    0    0   -0.4094739914E+01   -0.2434583902E+01    0.1292580962E+00    0.4765585423E+01    0.1779465238E-03    0    0
  -24    2    5    5    0    0   -0.2774411774E+02   -0.1930666542E+02   -0.3948297501E+00    0.3383005524E+02    0.1353991508E+01    0    0
 -321    1   10   10    0    0   -0.1402904606E+02   -0.9828664780E+01   -0.2565431595E+00    0.1713844490E+02    0.4936669767E+00    0    0
 -211    1   10   10    0    0   -0.4593354225E+01   -0.2944488049E+01    0.7967776805E-01    0.5458456039E+01    0.1395686567E+00    0    0
  321    1   10   10    0    0   -0.9121713638E+01   -0.6533509731E+01   -0.2179643214E+00    0.1123314857E+02    0.4936669767E+00    0    0
  -16    1    8    8    0    0    0.5039229870E+01   -0.1118441939E+01    0.9557688236E-01    0.5162740231E+01    0.4320892040E-03    0    0
   24    2    8    8    0    0    0.3352212524E+02   -0.5503005981E+01    0.7555298209E+00    0.3401256180E+02    0.1505810857E+01    0    0
  221    1   15   15    0    0    0.1195041466E+02   -0.2294135094E+01    0.4211499915E-01    0.1218106842E+02    0.5487998724E+00    0    0
  211    1   15   15    0    0    0.1263661003E+02   -0.2018841743E+01    0.1423578560E+00    0.1279841328E+02    0.1395679712E+00    0    0
  111    1   15   15    0    0    0.8935102463E+01   -0.1190029263E+01    0.5710570216E+00    0.9033080101E+01    0.1349640638E+00    0    0
</event>
<event>
   20 9999    1    0.9119999695E+02    0.7565275169E-02    0.1185000000E+00
   11   -1    0    0    0    0    0.0000000000E+00    0.0000000000E+00    0.8000000000E+02    0.8000000000E+02    0.5109988851E-03    0    0
  -11   -1    0    0    0    0    0.0000000000E+00    0.0000000000E+00   -0.8000000000E+02    0.8000000000E+02    0.5109988851E-03    0    0
  -24    2    1    2    0    0   -0.3427886367E+00   -0.2863619232E+02    0.2774494362E+02    0.8476975250E+02    0.7480628204E+02    0    0
   24    2    1    2    0    0    0.3427940309E+00    0.2863620567E+02   -0.2764317703E+02    0.7512848663E+02    0.6371808243E+02    0    0
   22    1    1    2    0    0   -0.5160984529E-05   -0.1322339540E-04   -0.9915269911E-01    0.9915269911E-01    0.0000000000E+00    0    0
   22    1    1    2    0    0   -0.2089967808E-06    0.2593594672E-06   -0.2613268094E-02    0.2613268094E-02    0.0000000000E+00    0    0
   15    2    3    3    0    0    0.1997756958E+02   -0.3175837135E+02    0.4451068878E+02    0.5824136353E+02    0.1777029991E+01    0    0
  -16    1    3    3    0    0   -0.2032035828E+02    0.3122179270E+01   -0.1676574326E+02    0.2652838326E+02    0.0000000000E+00    0    0
   16    1    4    4    0    0   -0.2180029869E+02   -0.3835135221E+01    0.6464085102E+01    0.2305961037E+02    0.0000000000E+00    0    0
  -15    2    4    4    0    0    0.2214309120E+02    0.3247134018E+02   -0.3410726166E+02    0.5206887436E+02    0.1777029991E+01    0    0
   16    1    7    7    0    0    0.2408564568E+01   -0.3859977245E+01    0.5942320347E+01    0.7484101772E+01    0.3229676804E-03    0    0
  -24    2    7    7    0    0    0.1756979179E+02   -0.2789964485E+02    0.3857011795E+02    0.5075955582E+02    0.1338160396E+01    0    0
 -211    1   12   12    0    0    0.7337235451E+01   -0.1103735447E+02    0.1540047264E+02    0.2031876564E+02    0.1395677924E+00    0    0
  310    1   12   12    0    0    0.4260941029E+01   -0.6780105591E+01    0.9228890419E+01    0.1222888374E+02    0.4977200925E+00    0    0
  111    1   12   12    0    0    0.5971613884E+01   -0.1008218193E+02    0.1394075012E+02    0.1821190071E+02    0.1349640787E+00    0    0
  -16    1   10   10    0    0    0.2498353958E+01    0.3991158724E+01   -0.3671240330E+01    0.5970688820E+01    0.2729575208E-03    0    0
20213    2   10   10    0    0    0.1964560890E+02    0.2848146057E+02   -0.3043736458E+02    0.4610023499E+02    0.1286448836E+01    0    0
  211    1   17   17    0    0    0.4335301399E+01    0.6736015320E+01   -0.7602668285E+01    0.1104485321E+02    0.1395680606E+00    0    0
  211    1   17   17    0    0    0.9938212395E+01    0.1385264683E+02   -0.1460586834E+02    0.2245027351E+02    0.1395682395E+00    0    0
 -211    1   17   17    0    0    0.5372096062E+01    0.7892797947E+01   -0.8228828430E+01    0.1260510826E+02    0.1395680457E+00    0    0
</event>
<event>
   22 9999    1    0.9119999695E+02    0.7565275169E-02    0.1185000000E+00
   11   -1    0    0    0    0    0.0000000000E+00    0.0000000000E+00    0.8000000000E+02    0.8000000000E+02    0.5109988851E-03    0    0
  -11   -1    0    0    0    0    0.0000000000E+00    0.0000000000E+00   -0.8000000000E+02    0.8000000000E+02    0.5109988851E-03    0    0
  -24    2    1    2    0    0    0.2600341082E+01   -0.3111980677E+01    0.5473393440E+01    0.8105686188E+02    0.8077011108E+02    0    0
   24    2    1    2    0    0   -0.2600420237E+01    0.3112112045E+01   -0.5853868008E+01    0.7856266022E+02    0.7823922729E+02    0    0
   22    1    1    2    0    0    0.7912874571E-04   -0.1313875109E-03    0.3804745376E+00    0.3804745674E+00    0.0000000000E+00    0    0
   15    2    3    3    0    0    0.1397885036E+02   -0.7965277195E+01    0.4621860027E+01    0.1683369827E+02    0.1777029991E+01    0    0
  -16    1    3    3    0    0   -0.3165424347E+02    0.1718632889E+02    0.1205081367E+02    0.3798134613E+02    0.0000000000E+00    0    0
   22    1    3    3    0    0    0.2027573395E+02   -0.1233303261E+02   -0.1119927979E+02    0.2624181557E+02    0.0000000000E+00    0    0
   16    1    4    4    0    0    0.3119515610E+02    0.1835487747E+02    0.1095692062E+02    0.3781657791E+02    0.0000000000E+00    0    0
  -15    2    4    4    0    0   -0.3379557800E+02   -0.1524276543E+02   -0.1681078911E+02    0.4074608231E+02    0.1777029991E+01    0    0
   16    1    6    6    0    0    0.1577103257E+01   -0.1230180860E+01    0.4693579674E+00    0.2054483414E+01    0.5593964597E-03    0    0
  -24    2    6    6    0    0    0.1240232944E+02   -0.6735429287E+01    0.4152702808E+01    0.1477992058E+02    0.1420293927E+01    0    0
 -321    1   12   12    0    0    0.3869565487E+01   -0.2283652782E+01    0.1364523530E+01    0.4721680164E+01    0.4936670661E+00    0    0
  111    1   12   12    0    0    0.3288518667E+01   -0.1879111767E+01    0.8541425467E+00    0.3884998083E+01    0.1349641979E+00    0    0
  130    1   12   12    0    0    0.5244254589E+01   -0.2572668791E+01    0.1934046030E+01    0.6173255920E+01    0.4977200329E+00    0    0
  -16    1   10   10    0    0   -0.6100444794E+01   -0.2972950220E+01   -0.3095644236E+01    0.7459012508E+01    0.3257045755E-03    0    0
   24    2   10   10    0    0   -0.2769646263E+02   -0.1227041531E+02   -0.1371580601E+02    0.3328867340E+02    0.1534741521E+01    0    0
  211    1   17   17    0    0   -0.1136972809E+02   -0.5088961124E+01   -0.5654179573E+01    0.1368055058E+02    0.1395677179E+00    0    0
  211    1   17   17    0    0   -0.8301450610E+00   -0.3314280212E+00   -0.3584402502E+00    0.9731104374E+00    0.1395679563E+00    0    0
 -211    1   17   17    0    0   -0.2157273054E+01   -0.1176015139E+01   -0.1165078402E+01    0.2722815752E+01    0.1395680755E+00    0    0
  111    1   17   17    0    0   -0.6321478367E+01   -0.2629731178E+01   -0.2823076963E+01    0.7407061100E+01    0.1349640638E+00    0    0
  111    1   17   17    0    0   -0.7017838955E+01   -0.3044279814E+01   -0.3715030670E+01    0.8505137444E+01    0.1349637210E+00    0    0
</event>
<event>
   19 9999    1    0.9119999695E+02    0.7565275169E-02    0.1185000000E+00
   11   -1    0    0    0    0    0.0000000000E+00    0.0000000000E+00    0.8000000000E+02    0.8000000000E+02    0.5109988851E-03    0    0
  -11   -1    0    0    0    0    0.0000000000E+00    0.0000000000E+00   -0.8000000000E+02    0.8000000000E+02    0.5109988851E-03    0    0
  -24    2    1    2    0    0    0.1064728260E+02   -0.2231704712E+01   -0.3875696182E+02    0.8985422516E+02    0.8033265686E+02    0    0
   24    2    1    2    0    0   -0.1064728260E+02    0.2231704712E+01    0.3875696182E+02    0.7014577484E+02    0.5744547272E+02    0    0
   15    2    3    3    0    0   -0.3124945259E+02   -0.8142705917E+01    0.1960732341E+00    0.3234235764E+02    0.1777029991E+01    0    0
  -16    1    3    3    0    0    0.4189673233E+02    0.5911001205E+01   -0.3895303345E+02    0.5751186752E+02    0.0000000000E+00    0    0
   16    1    4    4    0    0   -0.2754719734E+02   -0.1533283806E+02    0.3169931602E+02    0.4470783615E+02    0.0000000000E+00    0    0
  -15    2    4    4    0    0    0.1689991570E+02    0.1756454277E+02    0.7057645321E+01    0.2543793488E+02    0.1777029991E+01    0    0
   16    1    5    5    0    0   -0.1524008751E+02   -0.3925635576E+01    0.2775671184E+00    0.1574001026E+02    0.1881229837E-03    0    0
*****    2    5    5    0    0   -0.1601059532E+02   -0.4217391014E+01   -0.8148616552E-01    0.1660362244E+02    0.1244224072E+01    0    0
  111    1   10   10    0    0   -0.4416964054E+01   -0.1568826199E+01    0.4300598800E-01    0.4689440250E+01    0.1349641234E+00    0    0
  111    1   10   10    0    0   -0.9155995369E+01   -0.2308017731E+01    0.3962825611E-01    0.9443462372E+01    0.1349640638E+00    0    0
 -211    1   10   10    0    0   -0.2437636614E+01   -0.3405474424E+00   -0.1641203910E+00    0.2470720291E+01    0.1395682991E+00    0    0
  -16    1    8    8    0    0    0.5461775303E+01    0.6105111599E+01    0.2294202089E+01    0.8506864548E+01    0.5878100637E-03    0    0
   24    2    8    8    0    0    0.1143880558E+02    0.1146012211E+02    0.4763720989E+01    0.1693207169E+02    0.1349562645E+01    0    0
  111    1   15   15    0    0    0.8446173072E+00    0.1006074071E+01    0.5320765376E+00    0.1423686743E+01    0.1349633336E+00    0    0
  111    1   15   15    0    0    0.2248940229E+01    0.2301373243E+01    0.1161297083E+01    0.3423576593E+01    0.1349643469E+00    0    0
  111    1   15   15    0    0    0.2698441982E+01    0.2972470045E+01    0.1257152081E+01    0.4209015846E+01    0.1349640042E+00    0    0
  211    1   15   15    0    0    0.5646806240E+01    0.5180204868E+01    0.1813195348E+01    0.7875792027E+01    0.1395682842E+00    0    0
</event>
<event>
   23 9999    1    0.9119999695E+02    0.7565275169E-02    0.1185000000E+00
   11   -1    0    0    0    0    0.0000000000E+00    0.0000000000E+00    0.8000000000E+02    0.8000000000E+02    0.5109988851E-03    0    0
  -11   -1    0    0    0    0    0.0000000000E+00    0.0000000000E+00   -0.8000000000E+02    0.8000000000E+02    0.5109988851E-03    0    0
  -24    2    1    2    0    0    0.8795829773E+01    0.3802214384E+01    0.2538296223E+01    0.7986824799E+02    0.7925068665E+02    0    0
   24    2    1    2    0    0   -0.8795843124E+01   -0.3802436352E+01   -0.2564098358E+01    0.8010594940E+02    0.7948938751E+02    0    0
   22    1    1    2    0    0    0.1387824068E-04    0.2220562164E-03    0.2580232173E-01    0.2580328099E-01    0.0000000000E+00    0    0
   15    2    3    3    0    0    0.3425809860E+02   -0.2405747604E+02    0.4058550835E+01    0.4209523773E+02    0.1777029991E+01    0    0
  -16    1    3    3    0    0   -0.2546226692E+02    0.2785968971E+02   -0.1520254612E+01    0.3777301407E+02    0.0000000000E+00    0    0
   16    1    4    4    0    0    0.1456919074E+01   -0.2595531845E+02    0.2978961754E+02    0.3953760910E+02    0.0000000000E+00    0    0
  -15    2    4    4    0    0   -0.1025276184E+02    0.2215288162E+02   -0.3235371399E+02    0.4056833649E+02    0.1777029991E+01    0    0
   16    1    6    6    0    0    0.4293826103E+01   -0.3191304922E+01    0.4981828630E+00    0.5373039722E+01    0.3411969010E-04    0    0
  -24    2    6    6    0    0    0.2996562004E+02   -0.2086711693E+02    0.3560527563E+01    0.3672385406E+02    0.1609099150E+01    0    0
 -211    1   11   11    0    0    0.9810831070E+01   -0.6847278118E+01    0.1030146360E+01    0.1200909233E+02    0.1395680308E+00    0    0
 -211    1   11   11    0    0    0.3174526215E+01   -0.2196151495E+01    0.4291682541E+00    0.3886433125E+01    0.1395680010E+00    0    0
 -211    1   11   11    0    0    0.2811833382E+01   -0.2146167040E+01    0.5490746498E+00    0.3582373857E+01    0.1395680457E+00    0    0
  211    1   11   11    0    0    0.2046240568E+01   -0.1521971583E+01    0.3715893626E+00    0.2580902100E+01    0.1395680159E+00    0    0
  211    1   11   11    0    0    0.9274656296E+01   -0.6378357887E+01    0.9827353358E+00    0.1129990959E+02    0.1395679712E+00    0    0
  111    1   11   11    0    0    0.2847532034E+01   -0.1777191520E+01    0.1978136748E+00    0.3365144014E+01    0.1349640042E+00    0    0
  -16    1    9    9    0    0   -0.8367332816E+00    0.2638074160E+01   -0.3166615725E+01    0.4205593109E+01    0.3558930475E-03    0    0
   24    2    9    9    0    0   -0.9416433334E+01    0.1951568031E+02   -0.2918837547E+02    0.3636434174E+02    0.9344872832E+00    0    0
  111    1   19   19    0    0   -0.4111920357E+01    0.8243873596E+01   -0.1199742413E+02    0.1512698746E+02    0.1349638999E+00    0    0
  111    1   19   19    0    0   -0.1538609624E+01    0.3558677435E+01   -0.5421975136E+01    0.6666898727E+01    0.1349641383E+00    0    0
  111    1   19   19    0    0   -0.2775795221E+01    0.5570937157E+01   -0.8468560219E+01    0.1051071358E+02    0.1349640042E+00    0    0
  211    1   19   19    0    0   -0.9901068807E+00    0.2142189980E+01   -0.3300412416E+01    0.4059740067E+01    0.1395680308E+00    0    0
</event>
<event>
   20 9999    1    0.9119999695E+02    0.7565275169E-02    0.1185000000E+00
   11   -1    0    0    0    0    0.0000000000E+00    0.0000000000E+00    0.8000000000E+02    0.8000000000E+02    0.5109988851E-03    0    0
  -11   -1    0    0    0    0    0.0000000000E+00    0.0000000000E+00   -0.8000000000E+02    0.8000000000E+02    0.5109988851E-03    0    0
  -24    2    1    2    0    0   -0.8635608673E+01    0.1586262989E+02   -0.5583176613E+01    0.7994531250E+02    0.7767807770E+02    0    0
   24    2    1    2    0    0    0.8635608673E+01   -0.1586262989E+02    0.5565488338E+01    0.8003545380E+02    0.7777211761E+02    0    0
   22    1    1    2    0    0    0.1126405778E-06   -0.1968364813E-06    0.1846255921E-01    0.1846255921E-01    0.0000000000E+00    0    0
   22    1    1    2    0    0   -0.3542142224E-07   -0.1298431300E-06   -0.7742158487E-03    0.7742159069E-03    0.0000000000E+00    0    0
   15    2    3    3    0    0   -0.2736702347E+02   -0.2241994667E+02   -0.1073981285E+02    0.3701498795E+02    0.1777029991E+01    0    0
  -16    1    3    3    0    0    0.1873141479E+02    0.3828257751E+02    0.5156636238E+01    0.4293032074E+02    0.0000000000E+00    0    0
   16    1    4    4    0    0   -0.1976321602E+02    0.1113797188E+02    0.2705604362E+02    0.3530819321E+02    0.0000000000E+00    0    0
  -15    2    4    4    0    0    0.2839882469E+02   -0.2700060081E+02   -0.2149055481E+02    0.4472725677E+02    0.1777029991E+01    0    0
   16    1    7    7    0    0   -0.6669968605E+01   -0.5183974266E+01   -0.2739363194E+01    0.8880663872E+01    0.3343033313E-03    0    0
  -24    2    7    7    0    0   -0.2069813156E+02   -0.1723685455E+02   -0.8000871658E+01    0.2813578224E+02    0.1444457769E+01    0    0
  111    1   12   12    0    0   -0.2196782827E+01   -0.2266593933E+01   -0.7916599512E+00    0.3257030010E+01    0.1349641830E+00    0    0
  111    1   12   12    0    0   -0.8735992432E+01   -0.7188383102E+01   -0.3521062851E+01    0.1184932613E+02    0.1349640936E+00    0    0
 -321    1   12   12    0    0   -0.9765353203E+01   -0.7781876087E+01   -0.3688148260E+01    0.1302942276E+02    0.4936669767E+00    0    0
  -16    1   10   10    0    0    0.3635419369E+01   -0.3714818954E+01   -0.2742260218E+01    0.5876746178E+01    0.4178791423E-03    0    0
   24    2   10   10    0    0    0.2476452255E+02   -0.2328684425E+02   -0.1874914169E+02    0.3885226822E+02    0.1552398443E+01    0    0
  321    1   17   17    0    0    0.5649386883E+01   -0.5596011639E+01   -0.4309509754E+01    0.9057951927E+01    0.4936670661E+00    0    0
  211    1   17   17    0    0    0.9470148087E+01   -0.8944530487E+01   -0.7503986359E+01    0.1503388309E+02    0.1395688355E+00    0    0
 -321    1   17   17    0    0    0.9644983292E+01   -0.8746298790E+01   -0.6935642242E+01    0.1476043034E+02    0.4936670065E+00    0    0
</event>
<event>
   18 9999    1    0.9119999695E+02    0.7565275169E-02    0.1185000000E+00
   11   -1    0    0    0    0    0.0000000000E+00    0.0000000000E+00    0.8000000000E+02    0.8000000000E+02    0.5109988851E-03    0    0
  -11   -1    0    0    0    0    0.0000000000E+00    0.0000000000E+00   -0.8000000000E+02    0.8000000000E+02    0.5109988851E-03    0    0
  -24    2    1    2    0    0   -0.1303256512E+02   -0.1020611286E+01    0.1298645210E+02    0.8157271576E+02    0.7946427155E+02    0    0
   24    2    1    2    0    0    0.1303256512E+02    0.1020611286E+01   -0.1298645210E+02    0.7842728424E+02    0.7623189545E+02    0    0
   15    2    3    3    0    0   -0.3218111801E+02   -0.1381385684E+01    0.3814281845E+02    0.4995563126E+02    0.1777029991E+01    0    0
  -16    1    3    3    0    0    0.1914855385E+02    0.3607744575E+00   -0.2515636826E+02    0.3161708450E+02    0.0000000000E+00    0    0
   16    1    4    4    0    0    0.2680677652E+01   -0.6195089817E+01    0.3146728134E+02    0.3218314743E+02    0.0000000000E+00    0    0
  -15    2    4    4    0    0    0.1035188770E+02    0.7215701103E+01   -0.4445373154E+02    0.4624413681E+02    0.1777029991E+01    0    0
   16    1    5    5    0    0   -0.1371395969E+02   -0.6389806271E+00    0.1643184853E+02    0.2141230202E+02    0.2911191550E-03    0    0
  -24    2    5    5    0    0   -0.1846842575E+02   -0.7424594760E+00    0.2171247292E+02    0.2854529762E+02    0.1329863667E+01    0    0
 -211    1   10   10    0    0   -0.9691693306E+01   -0.3149321973E+00    0.1203706741E+02    0.1545763779E+02    0.1395679563E+00    0    0
  310    1   10   10    0    0   -0.5967350483E+01   -0.2721535563E+00    0.6714172363E+01    0.9000620842E+01    0.4977200627E+00    0    0
  111    1   10   10    0    0   -0.2809379339E+01   -0.1553735435E+00    0.2961228132E+01    0.4087033272E+01    0.1349639893E+00    0    0
  -16    1    8    8    0    0    0.2862815857E+01    0.2277525663E+01   -0.1390530396E+02    0.1437846756E+02    0.5774196470E-03    0    0
   24    2    8    8    0    0    0.7489478588E+01    0.4938458920E+01   -0.3055017662E+02    0.3186748695E+02    0.1320140123E+01    0    0
  321    1   15   15    0    0    0.6457039356E+01    0.4506903648E+01   -0.2715349579E+02    0.2827651978E+02    0.4936671555E+00    0    0
  211    1   15   15    0    0    0.2858127058E+00    0.8850838989E-01   -0.8815961480E+00    0.9413892627E+00    0.1395683289E+00    0    0
 -211    1   15   15    0    0    0.7466266155E+00    0.3430467844E+00   -0.2515082359E+01    0.2649575710E+01    0.1395680159E+00    0    0
</event>
<event>
   20 9999    1    0.9119999695E+02    0.7565275169E-02    0.1185000000E+00
   11   -1    0    0    0    0    0.0000000000E+00    0.0000000000E+00    0.8000000000E+02    0.8000000000E+02    0.5109988851E-03    0    0
  -11   -1    0    0    0    0    0.0000000000E+00    0.0000000000E+00   -0.8000000000E+02    0.8000000000E+02    0.5109988851E-03    0    0
  -24    2    1    2    0    0    0.6368484974E+01   -0.5956501484E+01   -0.1642997169E+02    0.8356496429E+02    0.8146853638E+02    0    0
   24    2    1    2    0    0   -0.6368484974E+01    0.5956501007E+01    0.1642988014E+02    0.7643494415E+02    0.7413718414E+02    0    0
   22    1    1    2    0    0   -0.4140344174E-06    0.4095690258E-06    0.9091156244E-04    0.9091342508E-04    0.0000000000E+00    0    0
   15    2    3    3    0    0    0.2498441505E+02   -0.3557747650E+02   -0.2094631958E+02    0.4828958511E+02    0.1777029991E+01    0    0
  -16    1    3    3    0    0   -0.1861593056E+02    0.2962097740E+02    0.4516347885E+01    0.3527538300E+02    0.0000000000E+00    0    0
   16    1    4    4    0    0   -0.6777226448E+01   -0.3316593170E+02    0.1557059002E+02    0.3726061249E+02    0.0000000000E+00    0    0
  -15    2    4    4    0    0    0.4087417722E+00    0.3912243271E+02    0.8592911363E+00    0.3917433167E+02    0.1777029991E+01    0    0
   16    1    6    6    0    0    0.2114724740E-01   -0.3618149459E-01   -0.5326118693E-01    0.6777347624E-01    0.4284704919E-03    0    0
  -24    2    6    6    0    0    0.2496425247E+02   -0.3554269791E+02   -0.2089388275E+02    0.4822371292E+02    0.1573212743E+01    0    0
 -321    1   11   11    0    0    0.6843128204E+01   -0.1026041317E+02   -0.5965326786E+01    0.1370887756E+02    0.4936670959E+00    0    0
 -211    1   11   11    0    0    0.9790882111E+01   -0.1403974819E+02   -0.8067460060E+01    0.1892298317E+02    0.1395677179E+00    0    0
  321    1   11   11    0    0    0.8330239296E+01   -0.1124253273E+02   -0.6861094952E+01    0.1559184933E+02    0.4936669767E+00    0    0
  -16    1    9    9    0    0    0.4129521847E+00    0.3544483900E+01    0.1249755174E-01    0.3568480253E+01    0.3737624793E-03    0    0
   24    2    9    9    0    0   -0.4194311332E-02    0.3557949066E+02    0.8468274474E+00    0.3560739517E+02    0.1126541018E+01    0    0
  111    1   16   16    0    0   -0.2237681895E+00    0.1325750923E+02    0.2939660549E+00    0.1326334190E+02    0.1349640638E+00    0    0
  111    1   16   16    0    0   -0.2399071604E+00    0.7563750744E+01    0.1908621639E+00    0.7571163654E+01    0.1349641085E+00    0    0
  111    1   16   16    0    0    0.2683846653E+00    0.6703286648E+01    0.1536881328E+00    0.6711774349E+01    0.1349639893E+00    0    0
  211    1   16   16    0    0    0.1910964102E+00    0.8054945946E+01    0.2083110660E+00    0.8061112404E+01    0.1395680457E+00    0    0
</event>
<event>
   21 9999    1    0.9119999695E+02    0.7565275169E-02    0.1185000000E+00
   11   -1    0    0    0    0    0.0000000000E+00    0.0000000000E+00    0.8000000000E+02    0.8000000000E+02    0.5109988851E-03    0    0
  -11   -1    0    0    0    0    0.0000000000E+00    0.0000000000E+00   -0.8000000000E+02    0.8000000000E+02    0.5109988851E-03    0    0
  -24    2    1    2    0    0    0.1249889278E+02   -0.1902084541E+02   -0.7108281255E+00    0.7970895386E+02    0.7638715363E+02    0    0
   24    2    1    2    0    0   -0.1249889278E+02    0.1902084541E+02    0.7108281255E+00    0.8029104614E+02    0.7699436188E+02    0    0
   15    2    3    3    0    0   -0.3047119379E+01   -0.3427275848E+02    0.2100375366E+02    0.4035123825E+02    0.1777029991E+01    0    0
  -16    1    3    3    0    0    0.1623627472E+02    0.1900048256E+02   -0.2421478271E+02    0.3479928970E+02    0.0000000000E+00    0    0
   22    1    3    3    0    0   -0.6902625561E+00   -0.3748568535E+01    0.2500200033E+01    0.4558423996E+01    0.0000000000E+00    0    0
   16    1    4    4    0    0    0.3088784933E+01   -0.1677386665E+02    0.2788692856E+02    0.3268920135E+02    0.0000000000E+00    0    0
  -15    2    4    4    0    0   -0.1558767796E+02    0.3579471207E+02   -0.2717609978E+02    0.4760184097E+02    0.1777029991E+01    0    0
   16    1    5    5    0    0   -0.6185086966E+00   -0.1135377407E+02    0.7095841885E+01    0.1340304852E+02    0.2363881504E-03    0    0
  -24    2    5    5    0    0   -0.2428728342E+01   -0.2292030525E+02    0.1390872002E+02    0.2694974327E+02    0.1263763428E+01    0    0
 -211    1   11   11    0    0   -0.2417073399E+00   -0.1884145141E+01    0.1111670852E+01    0.2205383539E+01    0.1395675540E+00    0    0
 -211    1   11   11    0    0   -0.2626727819E+00   -0.3757101059E+01    0.2267670631E+01    0.4398478508E+01    0.1395680606E+00    0    0
  211    1   11   11    0    0   -0.7854302526E+00   -0.5911608219E+01    0.3242222548E+01    0.6789366245E+01    0.1395678520E+00    0    0
  111    1   11   11    0    0   -0.2335609347E+00   -0.3619301796E+01    0.2305899143E+01    0.4299916267E+01    0.1349640191E+00    0    0
  111    1   11   11    0    0   -0.9053567648E+00   -0.7748148441E+01    0.4981256485E+01    0.9256597519E+01    0.1349640340E+00    0    0
  -16    1    9    9    0    0   -0.6310708523E+01    0.1464189720E+02   -0.1096157742E+02    0.1934854889E+02    0.3750062897E-03    0    0
   24    2    9    9    0    0   -0.9277583122E+01    0.2115422249E+02   -0.1621559143E+02    0.2825516510E+02    0.1354341865E+01    0    0
  321    1   18   18    0    0   -0.1906528831E+01    0.4260459900E+01   -0.3431415081E+01    0.5814179897E+01    0.4936671257E+00    0    0
  111    1   18   18    0    0   -0.2328501940E+01    0.5208109856E+01   -0.3973280668E+01    0.6953524590E+01    0.1349631697E+00    0    0
  310    1   18   18    0    0   -0.5042552948E+01    0.1168565464E+02   -0.8810897827E+01    0.1548746300E+02    0.4977200627E+00    0    0
</event>
<event>
   22 9999    1    0.9119999695E+02    0.7565275169E-02    0.1185000000E+00
   11   -1    0    0    0    0    0.0000000000E+00    0.0000000000E+00    0.8000000000E+02    0.8000000000E+02    0.5109988851E-03    0    0
  -11   -1    0    0    0    0    0.0000000000E+00    0.0000000000E+00   -0.8000000000E+02    0.8000000000E+02    0.5109988851E-03    0    0
  -24    2    1    2    0    0    0.2195953178E+02    0.9617435455E+01   -0.2176167107E+02    0.7862452698E+02    0.7164865875E+02    0    0
   24    2    1    2    0    0   -0.2195817375E+02   -0.9616690636E+01    0.2153571892E+02    0.8114520264E+02    0.7447223663E+02    0    0
   22    1    1    2    0    0   -0.1400466659E-02   -0.1063310774E-02    0.1794802547E+00    0.1794888675E+00    0.0000000000E+00    0    0
   22    1    1    2    0    0    0.1361515024E-03   -0.5950765335E-03    0.4228607565E-01    0.4229047894E-01    0.0000000000E+00    0    0
   22    1    1    2    0    0   -0.9592782590E-04    0.9123480413E-03    0.6305467337E-02    0.6371852010E-02    0.0000000000E+00    0    0
   22    1    1    2    0    0    0.1453224968E-05    0.1129602992E-05   -0.1513837371E-02    0.1513838535E-02    0.0000000000E+00    0    0
   22    1    1    2    0    0   -0.8076273872E-08    0.8652506267E-07   -0.6057507126E-03    0.6057507126E-03    0.0000000000E+00    0    0
   15    2    3    3    0    0    0.3553933334E+02   -0.1381556416E+02    0.7338994503E+01    0.3887071991E+02    0.1777029991E+01    0    0
  -16    1    3    3    0    0   -0.1357980251E+02    0.2343299866E+02   -0.2910066605E+02    0.3975380707E+02    0.0000000000E+00    0    0
   16    1    4    4    0    0   -0.3690177917E+02   -0.3360142136E+02    0.1443437862E+02    0.5195332718E+02    0.0000000000E+00    0    0
  -15    2    4    4    0    0    0.1494360733E+02    0.2398473167E+02    0.7101340771E+01    0.2919187546E+02    0.1777029991E+01    0    0
   16    1   10   10    0    0    0.1430654240E+02   -0.5326933384E+01    0.3793086529E+01    0.1573025322E+02    0.2441406250E-03    0    0
 -211    1   10   10    0    0    0.2123419189E+02   -0.8489174843E+01    0.3546197176E+01    0.2314199638E+02    0.1395681798E+00    0    0
  -16    1   13   13    0    0    0.2461264133E+01    0.3650937319E+01    0.1337361693E+01    0.4601706505E+01    0.3398293629E-03    0    0
   24    2   13   13    0    0    0.1248293114E+02    0.2033473778E+02    0.5764258862E+01    0.2459131813E+02    0.1476862192E+01    0    0
  211    1   17   17    0    0    0.2284547567E+01    0.3520679474E+01    0.1149808526E+01    0.4353835106E+01    0.1395681798E+00    0    0
  211    1   17   17    0    0    0.3673399448E+01    0.5769062042E+01    0.1727932692E+01    0.7055577755E+01    0.1395680457E+00    0    0
 -211    1   17   17    0    0    0.7774174809E+00    0.1355533004E+01    0.5741325021E+00    0.1670615077E+01    0.1395679563E+00    0    0
  111    1   17   17    0    0    0.3005289555E+01    0.4737310886E+01    0.1272683740E+01    0.5754287243E+01    0.1349639744E+00    0    0
  111    1   17   17    0    0    0.2742277145E+01    0.4952151299E+01    0.1039701223E+01    0.5757002354E+01    0.1349638402E+00    0    0
</event>
<event>
   20 9999    1    0.9119999695E+02    0.7565275169E-02    0.1185000000E+00
   11   -1    0    0    0    0    0.0000000000E+00    0.0000000000E+00    0.8000000000E+02    0.8000000000E+02    0.5109988851E-03    0    0
  -11   -1    0    0    0    0    0.0000000000E+00    0.0000000000E+00   -0.8000000000E+02    0.8000000000E+02    0.5109988851E-03    0    0
  -24    2    1    2    0    0    0.1115774250E+02    0.1796763039E+02    0.3563635635E+02    0.6777818298E+02    0.5363395309E+02    0    0
   24    2    1    2    0    0   -0.1115774441E+02   -0.1796763039E+02   -0.3564929581E+02    0.9220081329E+02    0.8235767365E+02    0    0
   22    1    1    2    0    0    0.1296699338E-05   -0.1027086682E-05    0.1697437651E-01    0.1697437651E-01    0.0000000000E+00    0    0
   22    1    1    2    0    0    0.1948815793E-06   -0.1772306035E-07   -0.4035264719E-02    0.4035264719E-02    0.0000000000E+00    0    0
   15    2    3    3    0    0    0.9708814621E+01   -0.1710878754E+02    0.3254635096E+01    0.2001804733E+02    0.1777029991E+01    0    0
  -16    1    3    3    0    0    0.1448928118E+01    0.3507641983E+02    0.3238172150E+02    0.4776013184E+02    0.0000000000E+00    0    0
   16    1    4    4    0    0   -0.1201433945E+02   -0.5012019730E+02   -0.1406400871E+02    0.5342448044E+02    0.0000000000E+00    0    0
  -15    2    4    4    0    0    0.8565952778E+00    0.3215256882E+02   -0.2158528709E+02    0.3877633286E+02    0.1777029991E+01    0    0
   16    1    7    7    0    0    0.1480553985E+01   -0.1921288133E+01    0.3565395176E+00    0.2451633930E+01    0.2602954337E-03    0    0
  -24    2    7    7    0    0    0.8228642464E+01   -0.1518817329E+02    0.2898223639E+01    0.1756720161E+02    0.1347468853E+01    0    0
  221    1   12   12    0    0    0.3533827543E+01   -0.6825356960E+01    0.9030150771E+00    0.7758224964E+01    0.5488000512E+00    0    0
 -211    1   12   12    0    0    0.3701579571E+01   -0.6879125595E+01    0.1654670000E+01    0.7986330032E+01    0.1395680159E+00    0    0
  111    1   12   12    0    0    0.9932355285E+00   -0.1483691216E+01    0.3405385911E+00    0.1822646022E+01    0.1349640340E+00    0    0
  -16    1   10   10    0    0    0.1788996309E+00    0.1786479568E+02   -0.1176441002E+02    0.2139121819E+02    0.5069960607E-03    0    0
20213    2   10   10    0    0    0.6777293086E+00    0.1428903770E+02   -0.9821724892E+01    0.1738663673E+02    0.1092215061E+01    0    0
  111    1   17   17    0    0    0.5206147209E-01    0.1513165236E+01   -0.1364207625E+01    0.2042463541E+01    0.1349640042E+00    0    0
  111    1   17   17    0    0    0.6065654755E+00    0.8400398254E+01   -0.5442746162E+01    0.1002877426E+02    0.1349641085E+00    0    0
  211    1   17   17    0    0    0.1910239086E-01    0.4375473976E+01   -0.3014770985E+01    0.5315398216E+01    0.1395680010E+00    0    0
</event>
<event>
   21 9999    1    0.9119999695E+02    0.7565275169E-02    0.1185000000E+00
   11   -1    0    0    0    0    0.0000000000E+00    0.0000000000E+00    0.8000000000E+02    0.8000000000E+02    0.5109988851E-03    0    0
  -11   -1    0    0    0    0    0.0000000000E+00    0.0000000000E+00   -0.8000000000E+02    0.8000000000E+02    0.5109988851E-03    0    0
  -24    2    1    2    0    0    0.1672622108E+02    0.2173160744E+02   -0.3693570614E+01    0.8891764069E+02    0.8450251007E+02    0    0
   24    2    1    2    0    0   -0.1672601509E+02   -0.2173183060E+02    0.3687016964E+01    0.7107563019E+02    0.6546846008E+02    0    0
   22    1    1    2    0    0    0.2572765516E-04   -0.1397278766E-05    0.5108230747E-02    0.5108295474E-02    0.0000000000E+00    0    0
   22    1    1    2    0    0   -0.1708840536E-07    0.7358810450E-08    0.1242639264E-02    0.1242639264E-02    0.0000000000E+00    0    0
   22    1    1    2    0    0   -0.2320460480E-03    0.2249458048E-03    0.2028001181E-03    0.3815414384E-03    0.0000000000E+00    0    0
   15    2    3    3    0    0    0.3927754974E+02    0.2141679573E+02    0.2588885307E+02    0.5171842575E+02    0.1777029991E+01    0    0
  -16    1    3    3    0    0   -0.2255133057E+02    0.3148116767E+00   -0.2958242226E+02    0.3719921112E+02    0.0000000000E+00    0    0
   16    1    4    4    0    0    0.3262202740E+01   -0.2366936874E+02   -0.2592260933E+02    0.3525425720E+02    0.0000000000E+00    0    0
  -15    2    4    4    0    0   -0.1998821831E+02    0.1937537909E+01    0.2960962486E+02    0.3582137299E+02    0.1777029991E+01    0    0
   16    1    8    8    0    0    0.3002246618E+01    0.1861344576E+01    0.1832070827E+01    0.3979267836E+01    0.4048614355E-03    0    0
  -24    2    8    8    0    0    0.3627685165E+02    0.1955629539E+02    0.2405780220E+02    0.4774119949E+02    0.1409038305E+01    0    0
 -321    1   13   13    0    0    0.1482105827E+02    0.8041424751E+01    0.9774383545E+01    0.1949642372E+02    0.4936670959E+00    0    0
 -211    1   13   13    0    0    0.8359133720E+01    0.4255790710E+01    0.5256578922E+01    0.1075350952E+02    0.1395682245E+00    0    0
  321    1   13   13    0    0    0.1309665585E+02    0.7259078026E+01    0.9026836395E+01    0.1749125862E+02    0.4936669767E+00    0    0
  -16    1   11   11    0    0   -0.2364038676E+00   -0.7324116677E-01    0.3151023388E+00    0.4006755352E+00    0.5816381308E-03    0    0
   24    2   11   11    0    0   -0.1975259972E+02    0.2010855198E+01    0.2929568672E+02    0.3542210388E+02    0.1509784460E+01    0    0
  321    1   18   18    0    0   -0.8219035149E+01    0.8620367646E+00    0.1225822163E+02    0.1479200268E+02    0.4936670363E+00    0    0
  211    1   18   18    0    0   -0.6691664219E+01    0.4369520545E+00    0.1017643642E+02    0.1218805313E+02    0.1395682842E+00    0    0
 -321    1   18   18    0    0   -0.4841901779E+01    0.7118665576E+00    0.6861029625E+01    0.8442049026E+01    0.4936670661E+00    0    0
</event>
<event>
   18 9999    1    0.9119999695E+02    0.7565275169E-02    0.1185000000E+00
   11   -1    0    0    0    0    0.0000000000E+00    0.0000000000E+00    0.8000000000E+02    0.8000000000E+02    0.5109988851E-03    0    0
  -11   -1    0    0    0    0    0.0000000000E+00    0.0000000000E+00   -0.8000000000E+02    0.8000000000E+02    0.5109988851E-03    0    0
  -24    2    1    2    0    0   -0.3070374250E+01   -0.8869026899E+00   -0.1149886012E+01    0.7737115479E+02    0.7729656982E+02    0    0
   24    2    1    2    0    0    0.3070374250E+01    0.8869026899E+00    0.1149886012E+01    0.8262884521E+02    0.8255900574E+02    0    0
   15    2    3    3    0    0    0.5200199604E+01    0.1923841667E+02    0.1782830429E+02    0.2679860497E+02    0.1777029991E+01    0    0
  -16    1    3    3    0    0   -0.3562503338E+01   -0.2126967621E+02   -0.3091272354E+02    0.3769199753E+02    0.0000000000E+00    0    0
   22    1    3    3    0    0   -0.4708070755E+01    0.1144356728E+01    0.1193453503E+02    0.1288055134E+02    0.0000000000E+00    0    0
   16    1    4    4    0    0    0.3424238968E+02    0.6817713261E+01    0.2495934296E+02    0.4291842651E+02    0.0000000000E+00    0    0
  -15    2    4    4    0    0   -0.3117201614E+02   -0.5930810452E+01   -0.2380945778E+02    0.3971041489E+02    0.1777029991E+01    0    0
   16    1    5    5    0    0    0.1659017503E+00    0.2013719827E+00    0.1782760024E+00    0.3160010874E+00    0.4206557933E-03    0    0
  -24    2    5    5    0    0    0.5034517288E+01    0.1903784180E+02    0.1765075684E+02    0.2648371124E+02    0.1432337880E+01    0    0
 -211    1   11   11    0    0    0.1745072961E+01    0.5744429111E+01    0.5214677334E+01    0.7953369617E+01    0.1395678520E+00    0    0
  130    1   11   11    0    0    0.2790071249E+01    0.1008231640E+02    0.9811054230E+01    0.1435068512E+02    0.4977201521E+00    0    0
  111    1   11   11    0    0    0.4993635118E+00    0.3211078882E+01    0.2625017881E+01    0.4179632664E+01    0.1349638999E+00    0    0
  -16    1    9    9    0    0   -0.4628741741E+01   -0.4212470949E+00   -0.3424002886E+01    0.5772910118E+01    0.8074192010E-04    0    0
   24    2    9    9    0    0   -0.2654450035E+02   -0.5509797096E+01   -0.2038639069E+02    0.3393906784E+02    0.1134482741E+01    0    0
  321    1   16   16    0    0   -0.1331330776E+02   -0.3025789738E+01   -0.1038986492E+02    0.1716369820E+02    0.4936670065E+00    0    0
  130    1   16   16    0    0   -0.1323119450E+02   -0.2484007597E+01   -0.9996527672E+01    0.1677537155E+02    0.4977200925E+00    0    0
</event>
<event>
   18 9999    1    0.9119999695E+02    0.7565275169E-02    0.1185000000E+00
   11   -1    0    0    0    0    0.0000000000E+00    0.0000000000E+00    0.8000000000E+02    0.8000000000E+02    0.5109988851E-03    0    0
  -11   -1    0    0    0    0    0.0000000000E+00    0.0000000000E+00   -0.8000000000E+02    0.8000000000E+02    0.5109988851E-03    0    0
  -24    2    1    2    0    0   -0.2127298862E+00   -0.1711272836E+01    0.3406843901E+01    0.7948373413E+02    0.7939196014E+02    0    0
   24    2    1    2    0    0    0.2127298862E+00    0.1711272836E+01   -0.3406843901E+01    0.8051626587E+02    0.8042567444E+02    0    0
   15    2    3    3    0    0   -0.2426095390E+02    0.2213746262E+02    0.2320520020E+02    0.4025295258E+02    0.1777029991E+01    0    0
  -16    1    3    3    0    0    0.2404822350E+02   -0.2384873390E+02   -0.1979835701E+02    0.3923078156E+02    0.0000000000E+00    0    0
   16    1    4    4    0    0   -0.8085936546E+01    0.4004845810E+02    0.1862102628E+01    0.4089900589E+02    0.0000000000E+00    0    0
  -15    2    4    4    0    0    0.8298666000E+01   -0.3833718491E+02   -0.5268946648E+01    0.3961725998E+02    0.1777029991E+01    0    0
   16    1    5    5    0    0   -0.6128927708E+01    0.5476710796E+01    0.5489459515E+01    0.9883940697E+01    0.2990099892E-03    0    0
  -24    2    5    5    0    0   -0.1813298225E+02    0.1666162300E+02    0.1771665573E+02    0.3037059975E+02    0.1441760898E+01    0    0
  111    1   10   10    0    0   -0.1072900772E+02    0.9588350296E+01    0.1045140934E+02    0.1778477478E+02    0.1349639148E+00    0    0
  111    1   10   10    0    0   -0.4846457481E+01    0.4478811741E+01    0.4622738361E+01    0.8058277130E+01    0.1349640042E+00    0    0
 -321    1   10   10    0    0   -0.2557518005E+01    0.2594463348E+01    0.2642508745E+01    0.4527548790E+01    0.4936670363E+00    0    0
  -16    1    8    8    0    0    0.1793877482E+00   -0.1430831194E+01   -0.3430596590E+00    0.1482277870E+01    0.1431401324E-03    0    0
   24    2    8    8    0    0    0.8119605064E+01   -0.3690786362E+02   -0.4926094532E+01    0.3813654327E+02    0.1418106914E+01    0    0
  211    1   15   15    0    0    0.2144646168E+01   -0.9690776825E+01   -0.8445124030E+00    0.9962095261E+01    0.1395679116E+00    0    0
  130    1   15   15    0    0    0.4945697308E+01   -0.2196035194E+02   -0.3130985975E+01    0.2273252678E+02    0.4977200925E+00    0    0
  111    1   15   15    0    0    0.1029263139E+01   -0.5256741524E+01   -0.9505967498E+00    0.5441926479E+01    0.1349639744E+00    0    0
</event>
<event>
   16 9999    1    0.9119999695E+02    0.7565275169E-02    0.1185000000E+00
   11   -1    0    0    0    0    0.0000000000E+00    0.0000000000E+00    0.8000000000E+02    0.8000000000E+02    0.5109988851E-03    0    0
  -11   -1    0    0    0    0    0.0000000000E+00    0.0000000000E+00   -0.8000000000E+02    0.8000000000E+02    0.5109988851E-03    0    0
  -24    2    1    2    0    0    0.1558706284E+01    0.5395599842E+01   -0.6660126209E+01    0.8117482758E+02    0.8070597076E+02    0    0
   24    2    1    2    0    0   -0.1558620095E+01   -0.5395531654E+01    0.6706264019E+01    0.7877902985E+02    0.7829189301E+02    0    0
   22    1    1    2    0    0   -0.8616120613E-04   -0.6795053923E-04   -0.4613752291E-01    0.4613765329E-01    0.0000000000E+00    0    0
   15    2    3    3    0    0   -0.3020111847E+02   -0.9622706771E+00    0.2240286827E+02    0.3765740204E+02    0.1777029991E+01    0    0
  -16    1    3    3    0    0    0.3175982475E+02    0.6357870102E+01   -0.2906299400E+02    0.4351742935E+02    0.0000000000E+00    0    0
   16    1    4    4    0    0   -0.2622358704E+02    0.2508793449E+02   -0.7456347466E+01    0.3704967117E+02    0.0000000000E+00    0    0
  -15    2    4    4    0    0    0.2466496658E+02   -0.3048346710E+02    0.1416261101E+02    0.4172936249E+02    0.1777029991E+01    0    0
   16    1    6    6    0    0   -0.3741681337E+01   -0.1021020785E+00    0.2445580959E+01    0.4471181870E+01    0.1726334885E-03    0    0
  -24    2    6    6    0    0   -0.2646062660E+02   -0.8602064848E+00    0.1995816803E+02    0.3318770218E+02    0.1479973435E+01    0    0
  310    1   11   11    0    0   -0.1040637875E+02   -0.5496026278E+00    0.7691237450E+01    0.1296139050E+02    0.4977201223E+00    0    0
 -211    1   11   11    0    0   -0.9573562622E+01   -0.7546623051E-01    0.7114111900E+01    0.1192848969E+02    0.1395681053E+00    0    0
  130    1   11   11    0    0   -0.6480687141E+01   -0.2351377010E+00    0.5152820587E+01    0.8297823906E+01    0.4977200329E+00    0    0
  -16    1    9    9    0    0    0.1292487335E+02   -0.1586905003E+02    0.6528904915E+01    0.2148268318E+02    0.3452669771E-03    0    0
  321    1    9    9    0    0    0.1174106503E+02   -0.1461561775E+02    0.7634264946E+01    0.2024832344E+02    0.4936670065E+00    0    0
</event>
<event>
   20 9999    1    0.9119999695E+02    0.7565275169E-02    0.1185000000E+00
   11   -1    0    0    0    0    0.0000000000E+00    0.0000000000E+00    0.8000000000E+02    0.8000000000E+02    0.5109988851E-03    0    0
  -11   -1    0    0    0    0    0.0000000000E+00    0.0000000000E+00   -0.8000000000E+02    0.8000000000E+02    0.5109988851E-03    0    0
  -24    2    1    2    0    0   -0.2188710451E+01   -0.6764596462E+01   -0.1200897598E+02    0.8030255890E+02    0.7908056641E+02    0    0
   24    2    1    2    0    0    0.2188633442E+01    0.6764656544E+01    0.1103004456E+02    0.7871850586E+02    0.7761695099E+02    0    0
   22    1    1    2    0    0    0.7716430991E-04   -0.5988950943E-04    0.9789319038E+00    0.9789319038E+00    0.0000000000E+00    0    0
   15    2    3    3    0    0   -0.2770213127E+02   -0.3137278748E+02   -0.1553985977E+02    0.4468002701E+02    0.1777029991E+01    0    0
  -16    1    3    3    0    0    0.2551342201E+02    0.2460819054E+02    0.3530883312E+01    0.3562253189E+02    0.0000000000E+00    0    0
   16    1    4    4    0    0   -0.1133201504E+02    0.2845999718E+02    0.2331084442E+02    0.3849391937E+02    0.0000000000E+00    0    0
  -15    2    4    4    0    0    0.1127215004E+02   -0.5894854069E+01   -0.1897874641E+02    0.2291639328E+02    0.1777029991E+01    0    0
   22    1    4    4    0    0    0.2248498440E+01   -0.1580048656E+02    0.6697946072E+01    0.1730819321E+02    0.0000000000E+00    0    0
   16    1    6    6    0    0   -0.3986145973E+01   -0.4759000778E+01   -0.2858445644E+01    0.6834336758E+01    0.2441406250E-03    0    0
   13    1    6    6    0    0   -0.1824385643E+02   -0.2031181145E+02   -0.9346055984E+01    0.2885771942E+02    0.1056587473E+00    0    0
  -14    1    6    6    0    0   -0.5473219872E+01   -0.6303209305E+01   -0.3335969925E+01    0.8989731789E+01    0.0000000000E+00    0    0
  -16    1    9    9    0    0    0.3704557717E+00   -0.6069344655E-01   -0.9694146514E+00    0.1039560080E+01    0.1313164830E-03    0    0
   24    2    9    9    0    0    0.1090209866E+02   -0.5834386349E+01   -0.1801000595E+02    0.2187765121E+02    0.1172956467E+01    0    0
  211    1   15   15    0    0    0.6941991448E+00   -0.3048605621E+00   -0.1276268005E+01    0.1491036654E+01    0.1395680010E+00    0    0
  211    1   15   15    0    0    0.1943228245E+01   -0.1049612880E+01   -0.3304109335E+01    0.3976736307E+01    0.1395679861E+00    0    0
  211    1   15   15    0    0    0.6941153407E+00   -0.4532921612E+00   -0.1100544095E+01    0.1384898543E+01    0.1395680010E+00    0    0
 -211    1   15   15    0    0    0.2546816587E+01   -0.1164713860E+01   -0.4009516239E+01    0.4892700672E+01    0.1395679712E+00    0    0
 -211    1   15   15    0    0    0.5023770809E+01   -0.2861908674E+01   -0.8319628716E+01    0.1013234711E+02    0.1395678669E+00    0    0
</event>
<event>
   19 9999    1    0.9119999695E+02    0.7565275169E-02    0.1185000000E+00
   11   -1    0    0    0    0    0.0000000000E+00    0.0000000000E+00    0.8000000000E+02    0.8000000000E+02    0.5109988851E-03    0    0
  -11   -1    0    0    0    0    0.0000000000E+00    0.0000000000E+00   -0.8000000000E+02    0.8000000000E+02    0.5109988851E-03    0    0
  -24    2    1    2    0    0   -0.3528654277E+00   -0.2089289856E+02   -0.4517576694E+00    0.8401924896E+02    0.8137808228E+02    0    0
   24    2    1    2    0    0    0.3528654277E+00    0.2089289856E+02    0.4517576694E+00    0.7598075104E+02    0.7304952240E+02    0    0
   15    2    3    3    0    0   -0.4108396530E+01   -0.1348046684E+02    0.4014343262E+02    0.4258233261E+02    0.1777029991E+01    0    0
  -16    1    3    3    0    0    0.3755531073E+01   -0.7412432194E+01   -0.4059519196E+02    0.4143691254E+02    0.0000000000E+00    0    0
   16    1    4    4    0    0    0.3312128448E+02    0.1572541618E+02   -0.1465648079E+02    0.3948570251E+02    0.0000000000E+00    0    0
  -15    2    4    4    0    0   -0.3276841736E+02    0.5167482853E+01    0.1510823822E+02    0.3649505234E+02    0.1777029991E+01    0    0
   16    1    5    5    0    0    0.5814037845E-01   -0.2665325701E+00    0.6841260791E+00    0.7365111709E+00    0.6092060939E-03    0    0
  -24    2    5    5    0    0   -0.4166698456E+01   -0.1321446419E+02    0.3946088791E+02    0.4184749603E+02    0.1438016057E+01    0    0
 -211    1   10   10    0    0   -0.9373610020E+00   -0.2848206758E+01    0.9015745163E+01    0.9502319336E+01    0.1395678669E+00    0    0
 -211    1   10   10    0    0   -0.2764747381E+01   -0.7651706219E+01    0.2326062584E+02    0.2464282036E+02    0.1395679861E+00    0    0
  211    1   10   10    0    0   -0.2666732371E+00   -0.1983059645E+01    0.5284436703E+01    0.5652290821E+01    0.1395678073E+00    0    0
  111    1   10   10    0    0   -0.1979165971E+00   -0.7314912677E+00    0.1900077820E+01    0.2050063848E+01    0.1349639893E+00    0    0
  -16    1    8    8    0    0   -0.6189646721E+01    0.1061654210E+01    0.2666751862E+01    0.6822785854E+01    0.4294203827E-03    0    0
   24    2    8    8    0    0   -0.2658006096E+02    0.4106031895E+01    0.1244208050E+02    0.2967370224E+02    0.1537563682E+01    0    0
  310    1   16   16    0    0   -0.1461953259E+02    0.2351704836E+01    0.6960209370E+01    0.1636928558E+02    0.4977200329E+00    0    0
  211    1   16   16    0    0   -0.2089839697E+01    0.5460208058E+00    0.1052467704E+01    0.2406810522E+01    0.1395680457E+00    0    0
  310    1   16   16    0    0   -0.9870691299E+01    0.1208306789E+01    0.4429404736E+01    0.1089760971E+02    0.4977200329E+00    0    0
</event>
<event>
   24 9999    1    0.9119999695E+02    0.7565275169E-02    0.1185000000E+00
   11   -1    0    0    0    0    0.0000000000E+00    0.0000000000E+00    0.8000000000E+02    0.8000000000E+02    0.5109988851E-03    0    0
  -11   -1    0    0    0    0    0.0000000000E+00    0.0000000000E+00   -0.8000000000E+02    0.8000000000E+02    0.5109988851E-03    0    0
  -24    2    1    2    0    0   -0.7140182018E+01   -0.1294272542E+01    0.2268576860E+01    0.7983522797E+02    0.7947238922E+02    0    0
   24    2    1    2    0    0    0.7140113354E+01    0.1294285655E+01   -0.2190768957E+01    0.8008695984E+02    0.7972744751E+02    0    0
   22    1    1    2    0    0    0.6862827286E-04   -0.1309174422E-04   -0.7780801505E-01    0.7780804485E-01    0.0000000000E+00    0    0
   15    2    3    3    0    0    0.2169804001E+02    0.2674314308E+02    0.1505971146E+02    0.3762915421E+02    0.1777029991E+01    0    0
  -16    1    3    3    0    0   -0.2883822250E+02   -0.2803741455E+02   -0.1279113483E+02    0.4220607376E+02    0.0000000000E+00    0    0
   16    1    4    4    0    0    0.1891790199E+02   -0.3593967056E+02   -0.4723169804E+01    0.4088833237E+02    0.0000000000E+00    0    0
  -15    2    4    4    0    0   -0.1168076992E+02    0.3681551743E+02    0.2363709927E+01    0.3873715210E+02    0.1777029991E+01    0    0
   22    1    4    4    0    0   -0.9701900184E-01    0.4184391797E+00    0.1686908305E+00    0.4614765644E+00    0.0000000000E+00    0    0
   16    1    6    6    0    0    0.5177675724E+01    0.6027950764E+01    0.3557051182E+01    0.8706154823E+01    0.6473755639E-04    0    0
  -24    2    6    6    0    0    0.1652121925E+02    0.2071624565E+02    0.1150325394E+02    0.2892448235E+02    0.1478985310E+01    0    0
 -211    1   12   12    0    0    0.2229404449E+01    0.2786815166E+01    0.1430289268E+01    0.3847309351E+01    0.1395680010E+00    0    0
 -211    1   12   12    0    0    0.1765423656E+01    0.2187751293E+01    0.1355909348E+01    0.3124251127E+01    0.1395680010E+00    0    0
  211    1   12   12    0    0    0.1193203926E+01    0.1613479972E+01    0.6991139054E+00    0.2129622698E+01    0.1395680010E+00    0    0
  111    1   12   12    0    0    0.2983217001E+01    0.3642871380E+01    0.2264190912E+01    0.5226363182E+01    0.1349639744E+00    0    0
  111    1   12   12    0    0    0.7607479572E+01    0.9621910095E+01    0.5324710369E+01    0.1337257099E+02    0.1349639446E+00    0    0
  111    1   12   12    0    0    0.7424903512E+00    0.8634172082E+00    0.4290400743E+00    0.1224365830E+01    0.1349639893E+00    0    0
  -16    1    9    9    0    0   -0.7311048508E+00    0.3447921753E+01    0.2689788640E+00    0.3534830093E+01    0.2669197856E-03    0    0
   24    2    9    9    0    0   -0.1095013714E+02    0.3336908340E+02    0.2094826460E+01    0.3520389175E+02    0.1234811306E+01    0    0
  211    1   20   20    0    0   -0.2945892096E+01    0.9013726234E+01    0.4948381186E+00    0.9496834755E+01    0.1395680457E+00    0    0
  211    1   20   20    0    0   -0.2206489086E+01    0.6924113750E+01    0.5291765332E+00    0.7287758827E+01    0.1395681798E+00    0    0
 -211    1   20   20    0    0   -0.4399489880E+01    0.1214555454E+02    0.6966481209E+00    0.1293733883E+02    0.1395677179E+00    0    0
  111    1   20   20    0    0   -0.1398265362E+01    0.5285686493E+01    0.3741635680E+00    0.5481955528E+01    0.1349640191E+00    0    0
</event>
<event>
   17 9999    1    0.9119999695E+02    0.7565275169E-02    0.1185000000E+00
   11   -1    0    0    0    0    0.0000000000E+00    0.0000000000E+00    0.8000000000E+02    0.8000000000E+02    0.5109988851E-03    0    0
  -11   -1    0    0    0    0    0.0000000000E+00    0.0000000000E+00   -0.8000000000E+02    0.8000000000E+02    0.5109988851E-03    0    0
  -24    2    1    2    0    0   -0.1758399963E+01    0.1895785522E+02    0.4427020550E+01    0.7254094696E+02    0.6985769653E+02    0    0
   24    2    1    2    0    0    0.1757124424E+01   -0.1895851898E+02    0.1029949546E+01    0.8200151062E+02    0.7975383759E+02    0    0
   22    1    1    2    0    0    0.7367287762E-03    0.6372636417E-03   -0.5457000732E+01    0.5457000732E+01    0.0000000000E+00    0    0
   22    1    1    2    0    0    0.5388379795E-03    0.2595803380E-04    0.3054080662E-04    0.5403266405E-03    0.0000000000E+00    0    0
   15    2    3    3    0    0    0.1645206833E+02    0.3338082886E+02   -0.1698651505E+02    0.4094691467E+02    0.1777029991E+01    0    0
  -16    1    3    3    0    0   -0.1821046829E+02   -0.1442297363E+02    0.2141353607E+02    0.3159403229E+02    0.0000000000E+00    0    0
   16    1    4    4    0    0    0.9664763451E+01   -0.4175566101E+02    0.2358809662E+02    0.4892178726E+02    0.0000000000E+00    0    0
  -15    2    4    4    0    0   -0.7907639503E+01    0.2279714203E+02   -0.2255814743E+02    0.3307972717E+02    0.1777029991E+01    0    0
   16    1    7    7    0    0    0.3238018036E+01    0.6510153770E+01   -0.3395564318E+01    0.8024756432E+01    0.1479394559E-03    0    0
  -24    2    7    7    0    0    0.1321469879E+02    0.2687199020E+02   -0.1359162045E+02    0.3292377090E+02    0.1584442854E+01    0    0
  310    1   12   12    0    0    0.6671179295E+01    0.1384282017E+02   -0.7349793434E+01    0.1704099464E+02    0.4977200627E+00    0    0
 -211    1   12   12    0    0    0.3109935760E+01    0.6446628094E+01   -0.2852122068E+01    0.7706152916E+01    0.1395680606E+00    0    0
  130    1   12   12    0    0    0.3433582067E+01    0.6582539558E+01   -0.3389703751E+01    0.8176621437E+01    0.4977200925E+00    0    0
  -16    1   10   10    0    0   -0.4640573978E+01    0.1156166172E+02   -0.1086736488E+02    0.1653198624E+02    0.4228639591E-03    0    0
  321    1   10   10    0    0   -0.3267376900E+01    0.1123637867E+02   -0.1169167137E+02    0.1654904366E+02    0.4936669171E+00    0    0
</event>
<event>
   19 9999    1    0.9119999695E+02    0.7565275169E-02    0.1185000000E+00
   11   -1    0    0    0    0    0.0000000000E+00    0.0000000000E+00    0.8000000000E+02    0.8000000000E+02    0.5109988851E-03    0    0
  -11   -1    0    0    0    0    0.0000000000E+00    0.0000000000E+00   -0.8000000000E+02    0.8000000000E+02    0.5109988851E-03    0    0
  -24    2    1    2    0    0   -0.1458629513E+02    0.3764148712E+02    0.2309015274E+02    0.9696709442E+02    0.8508714294E+02    0    0
   24    2    1    2    0    0    0.1458629513E+02   -0.3764148712E+02   -0.2309015274E+02    0.6303290176E+02    0.4254821014E+02    0    0
   15    2    3    3    0    0    0.1172992134E+02    0.5355587959E+01    0.4711679840E+02    0.4888173294E+02    0.1777029991E+01    0    0
  -16    1    3    3    0    0   -0.2631621742E+02    0.3228589630E+02   -0.2402664566E+02    0.4808536148E+02    0.0000000000E+00    0    0
   16    1    4    4    0    0   -0.1181335735E+02   -0.9437858313E-01   -0.9416386604E+01    0.1510737038E+02    0.0000000000E+00    0    0
  -15    2    4    4    0    0    0.2639965248E+02   -0.3754710770E+02   -0.1367376709E+02    0.4792553329E+02    0.1777029991E+01    0    0
   16    1    5    5    0    0    0.1320387006E+01    0.7742110491E+00    0.5165483952E+01    0.5387489796E+01    0.4825252836E-04    0    0
  -24    2    5    5    0    0    0.1040999699E+02    0.4581587791E+01    0.4195317078E+02    0.4349617004E+02    0.1577739835E+01    0    0
 -211    1   10   10    0    0    0.7704440951E+00    0.4404236972E+00    0.3698739767E+01    0.3806272745E+01    0.1395679861E+00    0    0
 -211    1   10   10    0    0    0.4077007294E+01    0.1781127810E+01    0.1454029846E+02    0.1520638561E+02    0.1395678818E+00    0    0
 -211    1   10   10    0    0    0.1019056797E+01    0.3964394927E+00    0.4183863640E+01    0.4326642513E+01    0.1395679861E+00    0    0
  211    1   10   10    0    0    0.1417147517E+01    0.4928554893E+00    0.6448159695E+01    0.6621892452E+01    0.1395680308E+00    0    0
  211    1   10   10    0    0    0.2074485540E+01    0.1047174692E+01    0.8987938881E+01    0.9284535408E+01    0.1395679712E+00    0    0
  111    1   10   10    0    0    0.1051855683E+01    0.4235669076E+00    0.4094168663E+01    0.4250440121E+01    0.1349639893E+00    0    0
  -16    1    8    8    0    0    0.5086292744E+01   -0.6405937195E+01   -0.2081166983E+01    0.8440240860E+01    0.2114319796E-03    0    0
  -13    1    8    8    0    0    0.1648874855E+02   -0.2410682297E+02   -0.8617017746E+01    0.3045130348E+02    0.1056592613E+00    0    0
   14    1    8    8    0    0    0.4825650215E+01   -0.7035823822E+01   -0.2976119757E+01    0.9035873413E+01    0.0000000000E+00    0    0
</event>
<event>
   20 9999    1    0.9119999695E+02    0.7565275169E-02    0.1185000000E+00
   11   -1    0    0    0    0    0.0000000000E+00    0.0000000000E+00    0.8000000000E+02    0.8000000000E+02    0.5109988851E-03    0    0
  -11   -1    0    0    0    0    0.0000000000E+00    0.0000000000E+00   -0.8000000000E+02    0.8000000000E+02    0.5109988851E-03    0    0
  -24    2    1    2    0    0   -0.7055152893E+01    0.2804834366E+02   -0.7199923038E+01    0.7469021606E+02    0.6848579407E+02    0    0
   24    2    1    2    0    0    0.7055317402E+01   -0.2804821014E+02    0.7189405918E+01    0.8529927063E+02    0.7992369843E+02    0    0
   22    1    1    2    0    0   -0.1648837206E-03   -0.1333117834E-03    0.1051719300E-01    0.1051933039E-01    0.0000000000E+00    0    0
   15    2    3    3    0    0   -0.3408285522E+02    0.2934428978E+02   -0.1333697128E+02    0.4694423294E+02    0.1777029991E+01    0    0
  -16    1    3    3    0    0    0.2702770233E+02   -0.1295945406E+01    0.6137048244E+01    0.2774598122E+02    0.0000000000E+00    0    0
   16    1    4    4    0    0    0.1086172485E+02   -0.1756093979E+02    0.4302497864E+02    0.4772328949E+02    0.0000000000E+00    0    0
  -15    2    4    4    0    0   -0.3702301502E+01   -0.1030614090E+02   -0.3520400238E+02    0.3691075516E+02    0.1777029991E+01    0    0
   22    1    4    4    0    0   -0.1041062549E+00   -0.1811301857E+00   -0.6315698624E+00    0.6652268767E+00    0.0000000000E+00    0    0
   16    1    6    6    0    0   -0.1453219128E+02    0.1198974514E+02   -0.5710896969E+01    0.1968636322E+02    0.4060099600E-03    0    0
  -24    2    6    6    0    0   -0.1955200386E+02    0.1735569763E+02   -0.7626598835E+01    0.2725971413E+02    0.1194119930E+01    0    0
 -321    1   12   12    0    0   -0.6375870228E+01    0.6006931305E+01   -0.2517871380E+01    0.9127887726E+01    0.4936671257E+00    0    0
 -211    1   12   12    0    0   -0.6983423233E+01    0.6236657619E+01   -0.2615414619E+01    0.9722344398E+01    0.1395680159E+00    0    0
  211    1   12   12    0    0   -0.6192708492E+01    0.5112108231E+01   -0.2493312359E+01    0.8409481049E+01    0.1395679861E+00    0    0
  -16    1    9    9    0    0   -0.7575180531E+00   -0.1795574546E+01   -0.4676627159E+01    0.5066436768E+01    0.4547016870E-03    0    0
   24    2    9    9    0    0   -0.2944937229E+01   -0.8510993958E+01   -0.3052883720E+02    0.3184585190E+02    0.1018921971E+01    0    0
  211    1   17   17    0    0   -0.6938716769E+00   -0.2314372063E+01   -0.8582818985E+01    0.8917514801E+01    0.1395682693E+00    0    0
  111    1   17   17    0    0   -0.1163275719E+01   -0.3542719841E+01   -0.1114682865E+02    0.1175475025E+02    0.1349640489E+00    0    0
   22    1   17   17    0    0   -0.1087789536E+01   -0.2653901577E+01   -0.1079918861E+02    0.1117358494E+02    0.1100326917E-03    0    0
</event>
<event>
   18 9999    1    0.9119999695E+02    0.7565275169E-02    0.1185000000E+00
   11   -1    0    0    0    0    0.0000000000E+00    0.0000000000E+00    0.8000000000E+02    0.8000000000E+02    0.5109988851E-03    0    0
  -11   -1    0    0    0    0    0.0000000000E+00    0.0000000000E+00   -0.8000000000E+02    0.8000000000E+02    0.5109988851E-03    0    0
  -24    2    1    2    0    0   -0.5351393700E+01   -0.1364575028E+01    0.2129961014E+02    0.7898259735E+02    0.7585563660E+02    0    0
   24    2    1    2    0    0    0.5351393223E+01    0.1364575624E+01   -0.2125469017E+02    0.8097248077E+02    0.7793767548E+02    0    0
   22    1    1    2    0    0    0.2918977202E-06   -0.5817684041E-06   -0.4492135346E-01    0.4492135346E-01    0.0000000000E+00    0    0
   15    2    3    3    0    0   -0.1229726601E+02   -0.8090131760E+01    0.4818344879E+02    0.5041305161E+02    0.1777029991E+01    0    0
  -16    1    3    3    0    0    0.6945872307E+01    0.6725556850E+01   -0.2688383865E+02    0.2856954765E+02    0.0000000000E+00    0    0
   16    1    4    4    0    0   -0.1098750019E+02   -0.3373779297E+02   -0.2281099701E+02    0.4218181610E+02    0.0000000000E+00    0    0
  -15    2    4    4    0    0    0.1633889389E+02    0.3510237122E+02    0.1556307673E+01    0.3879066467E+02    0.1777029991E+01    0    0
   16    1    6    6    0    0   -0.2114955932E+00   -0.4853726923E-01    0.1166574717E+01    0.1186584592E+01    0.2589502255E-03    0    0
  -24    2    6    6    0    0   -0.1208625507E+02   -0.8041913986E+01    0.4701877213E+02    0.4922845078E+02    0.1387630105E+01    0    0
 -211    1   11   11    0    0   -0.4115692139E+01   -0.2301528692E+01    0.1438619900E+02    0.1513995266E+02    0.1395685971E+00    0    0
  310    1   11   11    0    0   -0.5814727306E+01   -0.4078727245E+01    0.2287182045E+02    0.2395443535E+02    0.4977200329E+00    0    0
  111    1   11   11    0    0   -0.2155834198E+01   -0.1661657095E+01    0.9760746956E+01    0.1013405800E+02    0.1349638700E+00    0    0
  -16    1    9    9    0    0    0.9259451866E+01    0.1996556664E+02    0.2987082303E+00    0.2201023674E+02    0.1726334885E-03    0    0
  323    2    9    9    0    0    0.7080085278E+01    0.1513818645E+02    0.1257660747E+01    0.1678195763E+02    0.8718268275E+00    0    0
  211    1   16   16    0    0    0.2905425787E+01    0.5652170658E+01    0.3487206697E+00    0.6366287708E+01    0.1395678818E+00    0    0
  310    1   16   16    0    0    0.4174658775E+01    0.9486015320E+01    0.9089400768E+00    0.1041566849E+02    0.4977199137E+00    0    0
</event>
<event>
   18 9999    1    0.9119999695E+02    0.7565275169E-02    0.1185000000E+00
   11   -1    0    0    0    0    0.0000000000E+00    0.0000000000E+00    0.8000000000E+02    0.8000000000E+02    0.5109988851E-03    0    0
  -11   -1    0    0    0    0    0.0000000000E+00    0.0000000000E+00   -0.8000000000E+02    0.8000000000E+02    0.5109988851E-03    0    0
  -24    2    1    2    0    0   -0.2802777672E+02   -0.1035586357E+02    0.3209663391E+02    0.9146374512E+02    0.8026594543E+02    0    0
   24    2    1    2    0    0    0.2802777672E+02    0.1035586357E+02   -0.3209663391E+02    0.6853625488E+02    0.5267090988E+02    0    0
   15    2    3    3    0    0   -0.2940409088E+02   -0.1787633896E+02    0.5634090805E+02    0.6604255676E+02    0.1777029991E+01    0    0
  -16    1    3    3    0    0    0.1376314163E+01    0.7520476341E+01   -0.2424427223E+02    0.2542118263E+02    0.0000000000E+00    0    0
   16    1    4    4    0    0    0.3117507744E+02   -0.1476005936E+02   -0.2353178787E+02    0.4175511932E+02    0.0000000000E+00    0    0
  -15    2    4    4    0    0   -0.3147301197E+01    0.2511592293E+02   -0.8564845085E+01    0.2678113937E+02    0.1777029991E+01    0    0
   16    1    5    5    0    0   -0.6642615318E+01   -0.4312723160E+01    0.1278889370E+02    0.1504259682E+02    0.3979005269E-03    0    0
  -24    2    5    5    0    0   -0.2276263237E+02   -0.1356431961E+02    0.4355422974E+02    0.5100256348E+02    0.1470411301E+01    0    0
 -211    1   10   10    0    0   -0.1262858272E+01   -0.6160918474E+00    0.2624490261E+01    0.2980236292E+01    0.1395680457E+00    0    0
  310    1   10   10    0    0   -0.1387280273E+02   -0.8265401840E+01    0.2700677109E+02    0.3147038078E+02    0.4977200031E+00    0    0
  111    1   10   10    0    0   -0.7626972675E+01   -0.4682826996E+01    0.1392297173E+02    0.1655194664E+02    0.1349641234E+00    0    0
  -16    1    8    8    0    0   -0.6611952931E-01    0.2230204105E+01   -0.8202262521E+00    0.2377173424E+01    0.5602282472E-03    0    0
   24    2    8    8    0    0   -0.3081305504E+01    0.2288670540E+02   -0.7744956017E+01    0.2440501976E+02    0.1524764061E+01    0    0
  111    1   15   15    0    0   -0.7732437253E+00    0.7116577148E+01   -0.2444731951E+01    0.7565613270E+01    0.1349645406E+00    0    0
  111    1   15   15    0    0   -0.5914531946E+00    0.6982467651E+01   -0.2071208954E+01    0.7308405876E+01    0.1349638104E+00    0    0
  321    1   15   15    0    0   -0.1716608286E+01    0.8787657738E+01   -0.3229014158E+01    0.9530997276E+01    0.4936668873E+00    0    0
</event>
<event>
   18 9999    1    0.9119999695E+02    0.7565275169E-02    0.1185000000E+00
   11   -1    0    0    0    0    0.0000000000E+00    0.0000000000E+00    0.8000000000E+02    0.8000000000E+02    0.5109988851E-03    0    0
  -11   -1    0    0    0    0    0.0000000000E+00    0.0000000000E+00   -0.8000000000E+02    0.8000000000E+02    0.5109988851E-03    0    0
  -24    2    1    2    0    0    0.6014894485E+01    0.1356085682E+02    0.1483773112E+01    0.7857884979E+02    0.7715152740E+02    0    0
   24    2    1    2    0    0   -0.6014894485E+01   -0.1356085682E+02   -0.1483773112E+01    0.8142115021E+02    0.8004452515E+02    0    0
   15    2    3    3    0    0    0.2065996933E+02   -0.2019833374E+02   -0.2072111511E+02    0.3559957123E+02    0.1777029991E+01    0    0
  -16    1    3    3    0    0   -0.1464507580E+02    0.3375918961E+02    0.2220488930E+02    0.4297927856E+02    0.0000000000E+00    0    0
   16    1    4    4    0    0   -0.2382918739E+02    0.1468670750E+02    0.2594681168E+02    0.3816761017E+02    0.0000000000E+00    0    0
  -15    2    4    4    0    0    0.1781429291E+02   -0.2824756432E+02   -0.2743058395E+02    0.4325354004E+02    0.1777029991E+01    0    0
   16    1    5    5    0    0    0.3459334850E+01   -0.3721838236E+01   -0.3931872368E+01    0.6424849987E+01    0.3452669771E-03    0    0
  -24    2    5    5    0    0    0.1720144844E+02   -0.1647729111E+02   -0.1679005814E+02    0.2917612267E+02    0.1396119595E+01    0    0
 -211    1   10   10    0    0    0.4243339539E+01   -0.4422976017E+01   -0.4785380363E+01    0.7777402878E+01    0.1395678520E+00    0    0
  310    1   10   10    0    0    0.7178936005E+01   -0.6796761036E+01   -0.6853825569E+01    0.1203975582E+02    0.4977198839E+00    0    0
  111    1   10   10    0    0    0.5779173851E+01   -0.5257555008E+01   -0.5150853157E+01    0.9358964920E+01    0.1349637657E+00    0    0
  -16    1    8    8    0    0    0.1080882072E+01   -0.1493957520E+01   -0.1374192834E+01    0.2299700260E+01    0.1463571680E-03    0    0
   24    2    8    8    0    0    0.1673411369E+02   -0.2675471878E+02   -0.2605747223E+02    0.4095554352E+02    0.1587184906E+01    0    0
  221    1   15   15    0    0    0.4340882301E+01   -0.6947180271E+01   -0.7134120941E+01    0.1087673855E+02    0.5487999320E+00    0    0
  211    1   15   15    0    0    0.7306471348E+01   -0.1097562885E+02   -0.1050350285E+02    0.1685799408E+02    0.1395679563E+00    0    0
  111    1   15   15    0    0    0.5086758614E+01   -0.8831909180E+01   -0.8419847488E+01    0.1322080803E+02    0.1349639148E+00    0    0
</event>
<event>
   20 9999    1    0.9119999695E+02    0.7565275169E-02    0.1185000000E+00
   11   -1    0    0    0    0    0.0000000000E+00    0.0000000000E+00    0.8000000000E+02    0.8000000000E+02    0.5109988851E-03    0    0
  -11   -1    0    0    0    0    0.0000000000E+00    0.0000000000E+00   -0.8000000000E+02    0.8000000000E+02    0.5109988851E-03    0    0
  -24    2    1    2    0    0    0.5518945694E+01    0.2551248169E+02   -0.9335579872E+01    0.7734603119E+02    0.7220740509E+02    0    0
   24    2    1    2    0    0   -0.5519710064E+01   -0.2551423264E+02    0.9330859184E+01    0.8264886475E+02    0.7786094666E+02    0    0
   22    1    1    2    0    0    0.7641192642E-03    0.1750081894E-02    0.4584446084E-02    0.4966266919E-02    0.0000000000E+00    0    0
   22    1    1    2    0    0    0.6601294444E-06   -0.1032724342E-06    0.1358817535E-03    0.1358833979E-03    0.0000000000E+00    0    0
   15    2    3    3    0    0   -0.2591969109E+02    0.4803544998E+01    0.1698646545E+02    0.3141022682E+02    0.1777029991E+01    0    0
  -16    1    3    3    0    0    0.3143863678E+02    0.2070893669E+02   -0.2632204628E+02    0.4593580246E+02    0.0000000000E+00    0    0
   16    1    4    4    0    0    0.3071042299E+01    0.2263728714E+02    0.2239537239E+02    0.3199110413E+02    0.0000000000E+00    0    0
  -15    2    4    4    0    0   -0.8590752602E+01   -0.4815151978E+02   -0.1306451225E+02    0.5065776443E+02    0.1777029991E+01    0    0
   16    1    7    7    0    0   -0.1042497158E+01    0.3621211052E+00    0.8431884646E+00    0.1388848186E+01    0.5758045008E-03    0    0
  -24    2    7    7    0    0   -0.2487821388E+02    0.4441612720E+01    0.1614394569E+02    0.3002261353E+02    0.1441144586E+01    0    0
 -321    1   12   12    0    0   -0.1038154125E+02    0.1486478567E+01    0.6931332111E+01    0.1258066368E+02    0.4936671257E+00    0    0
 -211    1   12   12    0    0   -0.4736364841E+01    0.9483889341E+00    0.3117323875E+01    0.5750633240E+01    0.1395687014E+00    0    0
  321    1   12   12    0    0   -0.9760308266E+01    0.2006745338E+01    0.6095289707E+01    0.1169131756E+02    0.4936670661E+00    0    0
  -16    1   10   10    0    0   -0.2537034273E+01   -0.1643526268E+02   -0.4058808804E+01    0.1711807060E+02    0.3229676804E-03    0    0
20213    2   10   10    0    0   -0.6054057121E+01   -0.3171815300E+02   -0.9006217957E+01    0.3354169083E+02    0.1113624811E+01    0    0
  111    1   17   17    0    0   -0.1074035168E+01   -0.7473528385E+01   -0.2105976105E+01    0.7839676380E+01    0.1349640042E+00    0    0
  111    1   17   17    0    0   -0.3922679424E+01   -0.1993977737E+02   -0.5573929310E+01    0.2107294655E+02    0.1349643469E+00    0    0
  211    1   17   17    0    0   -0.1057341576E+01   -0.4304842949E+01   -0.1326311350E+01    0.4629063129E+01    0.1395679861E+00    0    0
</event>
<event>
   20 9999    1    0.9119999695E+02    0.7565275169E-02    0.1185000000E+00
   11   -1    0    0    0    0    0.0000000000E+00    0.0000000000E+00    0.8000000000E+02    0.8000000000E+02    0.5109988851E-03    0    0
  -11   -1    0    0    0    0    0.0000000000E+00    0.0000000000E+00   -0.8000000000E+02    0.8000000000E+02    0.5109988851E-03    0    0
  -24    2    1    2    0    0    0.2976916885E+02   -0.1604684830E+02   -0.2361875057E+01    0.7258696747E+02    0.6418399048E+02    0    0
   24    2    1    2    0    0   -0.2976912308E+02    0.1604732323E+02    0.2357634068E+01    0.8740856171E+02    0.8056661987E+02    0    0
   22    1    1    2    0    0   -0.3624694000E-04   -0.4779759329E-03    0.4344216082E-02    0.4370582290E-02    0.0000000000E+00    0    0
   22    1    1    2    0    0   -0.9985985344E-05    0.2408537966E-05   -0.1033998560E-03    0.1039088602E-03    0.0000000000E+00    0    0
   15    2    3    3    0    0    0.2082180214E+02   -0.1533792210E+02    0.2962487221E+02    0.3936483383E+02    0.1777029991E+01    0    0
  -16    1    3    3    0    0    0.8947366714E+01   -0.7089260221E+00   -0.3198674774E+02    0.3322212982E+02    0.0000000000E+00    0    0
   16    1    4    4    0    0    0.2363850784E+02   -0.5768585205E+01    0.1464058495E+02    0.2839722443E+02    0.0000000000E+00    0    0
  -15    2    4    4    0    0   -0.5340763092E+02    0.2181590843E+02   -0.1228295040E+02    0.5901133347E+02    0.1777029991E+01    0    0
   16    1    7    7    0    0    0.1163374233E+02   -0.8781137466E+01    0.1654218674E+02    0.2204759216E+02    0.3258385696E-03    0    0
  -24    2    7    7    0    0    0.9188880920E+01   -0.6557389259E+01    0.1308385277E+02    0.1731879425E+02    0.1148286462E+01    0    0
 -211    1   12   12    0    0    0.2988121033E+01   -0.2075250864E+01    0.3805700302E+01    0.5266722679E+01    0.1395682693E+00    0    0
  111    1   12   12    0    0    0.3645561934E+01   -0.2558924913E+01    0.5983797550E+01    0.7460714817E+01    0.1349641681E+00    0    0
   22    1   12   12    0    0    0.2555198431E+01   -0.1923214316E+01    0.3294356346E+01    0.4591358662E+01    0.1364787604E-03    0    0
  -16    1   10   10    0    0   -0.3532533407E+01    0.1586866140E+01   -0.8568515182E+00    0.3966248989E+01    0.3606049286E-03    0    0
   24    2   10   10    0    0   -0.4987720108E+02    0.2022990227E+02   -0.1142658329E+02    0.5504740906E+02    0.1632922411E+01    0    0
  321    1   17   17    0    0   -0.9835730553E+01    0.3668839931E+01   -0.2299888611E+01    0.1075802803E+02    0.4936670363E+00    0    0
  211    1   17   17    0    0   -0.1154929066E+02    0.5019669533E+01   -0.2606552124E+01    0.1286066818E+02    0.1395684332E+00    0    0
 -321    1   17   17    0    0   -0.2849217415E+02    0.1154139042E+02   -0.6520141125E+01    0.3142870712E+02    0.4936670065E+00    0    0
</event>
<event>
   21 9999    1    0.9119999695E+02    0.7565275169E-02    0.1185000000E+00
   11   -1    0    0    0    0    0.0000000000E+00    0.0000000000E+00    0.8000000000E+02    0.8000000000E+02    0.5109988851E-03    0    0
  -11   -1    0    0    0    0    0.0000000000E+00    0.0000000000E+00   -0.8000000000E+02    0.8000000000E+02    0.5109988851E-03    0    0
  -24    2    1    2    0    0    0.4680064201E+01   -0.8347875595E+01    0.8309847832E+01    0.8097116852E+02    0.7997303772E+02    0    0
   24    2    1    2    0    0   -0.4680064201E+01    0.8347875595E+01   -0.8309847832E+01    0.7902883148E+02    0.7800584412E+02    0    0
   15    2    3    3    0    0    0.2797050285E+02   -0.7275862694E+01    0.3506987381E+02    0.4547901917E+02    0.1777029991E+01    0    0
  -16    1    3    3    0    0   -0.2329043961E+02   -0.1072013497E+01   -0.2676002693E+02    0.3549215317E+02    0.0000000000E+00    0    0
   16    1    4    4    0    0   -0.2762197495E+02    0.2068727112E+02   -0.2950123215E+02    0.4540109634E+02    0.0000000000E+00    0    0
  -15    2    4    4    0    0    0.2294190979E+02   -0.1233939552E+02    0.2119138527E+02    0.3362773514E+02    0.1777029991E+01    0    0
   16    1    5    5    0    0    0.4080618382E+01   -0.8468969464E+00    0.4669421673E+01    0.6258768559E+01    0.4315837286E-03    0    0
  -24    2    5    5    0    0    0.2389098549E+02   -0.6429251671E+01    0.3040183258E+02    0.3922204208E+02    0.1408025384E+01    0    0
 -211    1   10   10    0    0    0.2394139051E+01   -0.8815082312E+00    0.3181161165E+01    0.4080223560E+01    0.1395679116E+00    0    0
 -211    1   10   10    0    0    0.3762680769E+01   -0.1092425585E+01    0.4449233532E+01    0.5930119514E+01    0.1395680904E+00    0    0
  211    1   10   10    0    0    0.9293554306E+01   -0.2433582067E+01    0.1201323891E+02    0.1538277721E+02    0.1395680755E+00    0    0
  111    1   10   10    0    0    0.6868893623E+01   -0.1678365588E+01    0.8630855560E+01    0.1115833759E+02    0.1349639297E+00    0    0
  111    1   10   10    0    0    0.1571717620E+01   -0.3433704376E+00    0.2127344131E+01    0.2670581818E+01    0.1349639595E+00    0    0
  -16    1    8    8    0    0    0.4638391018E+01   -0.2191382885E+01    0.4052886486E+01    0.6537791252E+01    0.1479394559E-03    0    0
   24    2    8    8    0    0    0.1830442238E+02   -0.1014849758E+02    0.1713933182E+02    0.2709126663E+02    0.1461552024E+01    0    0
  111    1   17   17    0    0    0.1222441673E+01   -0.9832462072E+00    0.1293437481E+01    0.2037727356E+01    0.1349641234E+00    0    0
  111    1   17   17    0    0    0.2816636562E+01   -0.1397792339E+01    0.2543191910E+01    0.4046393871E+01    0.1349636018E+00    0    0
  111    1   17   17    0    0    0.2156978846E+01   -0.1417629004E+01    0.2040281296E+01    0.3292900324E+01    0.1349640191E+00    0    0
  211    1   17   17    0    0    0.1210836887E+02   -0.6349832058E+01    0.1126242447E+02    0.1771425056E+02    0.1395682096E+00    0    0
</event>
<event>
   18 9999    1    0.9119999695E+02    0.7565275169E-02    0.1185000000E+00
   11   -1    0    0    0    0    0.0000000000E+00    0.0000000000E+00    0.8000000000E+02    0.8000000000E+02    0.5109988851E-03    0    0
  -11   -1    0    0    0    0    0.0000000000E+00    0.0000000000E+00   -0.8000000000E+02    0.8000000000E+02    0.5109988851E-03    0    0
  -24    2    1    2    0    0   -0.1428011227E+02    0.1026737168E+00   -0.1756418800E+02    0.8648326111E+02    0.8346808624E+02    0    0
   24    2    1    2    0    0    0.1428013706E+02   -0.1026818827E+00    0.1859794617E+02    0.7248297882E+02    0.6858546448E+02    0    0
   22    1    1    2    0    0   -0.2394172407E-04    0.7097502021E-05   -0.1033642769E+01    0.1033642769E+01    0.0000000000E+00    0    0
   22    1    1    2    0    0   -0.3536428892E-06    0.1067045787E-05   -0.1142353067E-03    0.1142408364E-03    0.0000000000E+00    0    0
   15    2    3    3    0    0   -0.1384556866E+02   -0.4012478638E+02   -0.1827420044E+02    0.4624718857E+02    0.1777029991E+01    0    0
  -16    1    3    3    0    0   -0.4345439970E+00    0.4022746277E+02    0.7100124955E+00    0.4023607254E+02    0.0000000000E+00    0    0
   16    1    4    4    0    0    0.1316112804E+02    0.9801051140E+01   -0.2379127121E+02    0.2890156555E+02    0.0000000000E+00    0    0
  -15    2    4    4    0    0    0.1119008541E+01   -0.9903733253E+01    0.4238921738E+02    0.4358141327E+02    0.1777029991E+01    0    0
   16    1    7    7    0    0   -0.1622190475E+01   -0.5465848446E+01   -0.2707423210E+01    0.6311667442E+01    0.5627163337E-03    0    0
  -24    2    7    7    0    0   -0.1222392273E+02   -0.3466051865E+02   -0.1556749725E+02    0.3993734360E+02    0.1366967320E+01    0    0
 -211    1   12   12    0    0   -0.4160797596E+01   -0.1261943531E+02   -0.5309572220E+01    0.1430990601E+02    0.1395677924E+00    0    0
  310    1   12   12    0    0   -0.3210240364E+01   -0.9104734421E+01   -0.4317603111E+01    0.1058731556E+02    0.4977200329E+00    0    0
  111    1   12   12    0    0   -0.4852885246E+01   -0.1293634892E+02   -0.5940322876E+01    0.1504012203E+02    0.1349641234E+00    0    0
  -16    1   10   10    0    0    0.6125116348E+00   -0.3178985596E+01    0.1194474030E+02    0.1237569904E+02    0.1726334885E-03    0    0
  -13    1   10   10    0    0   -0.2407896519E+00   -0.2606758595E+01    0.1002208424E+02    0.1035888577E+02    0.1056588888E+00    0    0
   14    1   10   10    0    0    0.7473306060E+00   -0.4118378639E+01    0.2042406082E+02    0.2084854507E+02    0.0000000000E+00    0    0
</event>
<event>
   17 9999    1    0.9119999695E+02    0.7565275169E-02    0.1185000000E+00
   11   -1    0    0    0    0    0.0000000000E+00    0.0000000000E+00    0.8000000000E+02    0.8000000000E+02    0.5109988851E-03    0    0
  -11   -1    0    0    0    0    0.0000000000E+00    0.0000000000E+00   -0.8000000000E+02    0.8000000000E+02    0.5109988851E-03    0    0
  -24    2    1    2    0    0   -0.2264900208E+01    0.3331614733E+00   -0.4207746983E+01    0.8062671661E+02    0.8048429108E+02    0    0
   24    2    1    2    0    0    0.2264900208E+01   -0.3331614733E+00    0.4207746983E+01    0.7937328339E+02    0.7922860718E+02    0    0
   15    2    3    3    0    0    0.2660103226E+02    0.2839042091E+02   -0.9328203201E+01    0.4004752350E+02    0.1777029991E+01    0    0
  -16    1    3    3    0    0   -0.2886593246E+02   -0.2805725861E+02    0.5120456696E+01    0.4057919312E+02    0.0000000000E+00    0    0
   16    1    4    4    0    0   -0.2165910530E+02    0.3065681076E+02   -0.7893404007E+01    0.3835704422E+02    0.0000000000E+00    0    0
  -15    2    4    4    0    0    0.2392400551E+02   -0.3098997307E+02    0.1210115051E+02    0.4101624298E+02    0.1777029991E+01    0    0
   16    1    5    5    0    0    0.9653666496E+01    0.1061248970E+02   -0.3537573099E+01    0.1477608299E+02    0.4326613562E-03    0    0
  -24    2    5    5    0    0    0.1694841385E+02    0.1777904892E+02   -0.5790998459E+01    0.2527301788E+02    0.1358837247E+01    0    0
 -321    1   10   10    0    0    0.7292689800E+01    0.7731075287E+01   -0.2352913618E+01    0.1089645672E+02    0.4936671257E+00    0    0
  111    1   10   10    0    0    0.4644344449E+00    0.5057240129E+00   -0.1288443655E+00    0.7115281224E+00    0.1349639744E+00    0    0
  310    1   10   10    0    0    0.9191288948E+01    0.9542248726E+01   -0.3309239626E+01    0.1366503143E+02    0.4977200031E+00    0    0
  -16    1    8    8    0    0    0.8294067383E+01   -0.1123147202E+02    0.4938057899E+01    0.1480952263E+02    0.0000000000E+00    0    0
  323    2    8    8    0    0    0.1563087845E+02   -0.1975971985E+02    0.7163568974E+01    0.2620833397E+02    0.8883389831E+00    0    0
  211    1   15   15    0    0    0.5922018528E+01   -0.7416278362E+01    0.2988469601E+01    0.9950975418E+01    0.1395679861E+00    0    0
  130    1   15   15    0    0    0.9708858490E+01   -0.1234344006E+02    0.4175098419E+01    0.1625735664E+02    0.4977199733E+00    0    0
</event>
<event>
   19 9999    1    0.9119999695E+02    0.7565275169E-02    0.1185000000E+00
   11   -1    0    0    0    0    0.0000000000E+00    0.0000000000E+00    0.8000000000E+02    0.8000000000E+02    0.5109988851E-03    0    0
  -11   -1    0    0    0    0    0.0000000000E+00    0.0000000000E+00   -0.8000000000E+02    0.8000000000E+02    0.5109988851E-03    0    0
  -24    2    1    2    0    0    0.5569499731E+00    0.1881997871E+02    0.6552106380E+01    0.8733110809E+02    0.8502523041E+02    0    0
   24    2    1    2    0    0   -0.5616881847E+00   -0.1880942345E+02   -0.6487911701E+01    0.7260366821E+02    0.6982183838E+02    0    0
   22    1    1    2    0    0    0.4738201387E-02   -0.1055395417E-01   -0.6419475377E-01    0.6522884965E-01    0.0000000000E+00    0    0
   15    2    3    3    0    0    0.1986807060E+02    0.1965382957E+02    0.3992392349E+02    0.4876567078E+02    0.1777029991E+01    0    0
  -16    1    3    3    0    0   -0.1931112099E+02   -0.8338521123E+00   -0.3337181473E+02    0.3856543350E+02    0.0000000000E+00    0    0
   16    1    4    4    0    0   -0.3052828407E+02   -0.6644306183E+01   -0.2044089699E+02    0.3733568192E+02    0.0000000000E+00    0    0
  -15    2    4    4    0    0    0.2996659660E+02   -0.1216511726E+02    0.1395298576E+02    0.3526798248E+02    0.1777029991E+01    0    0
   16    1    6    6    0    0    0.4204750538E+01    0.4087092876E+01    0.8458892822E+01    0.1029257584E+02    0.4247867037E-03    0    0
  -24    2    6    6    0    0    0.1566410160E+02    0.1556751060E+02    0.3146660042E+02    0.3847501373E+02    0.1571073771E+01    0    0
  221    1   11   11    0    0    0.8871747017E+01    0.9179389000E+01    0.1850008011E+02    0.2248384285E+02    0.5487999916E+00    0    0
 -211    1   11   11    0    0    0.3019212246E+01    0.3001902580E+01    0.5314677715E+01    0.6811192513E+01    0.1395679116E+00    0    0
  111    1   11   11    0    0    0.3773141861E+01    0.3386218309E+01    0.7651842594E+01    0.9179977417E+01    0.1349640340E+00    0    0
  -16    1    9    9    0    0    0.1022230625E+02   -0.3967703819E+01    0.4196481228E+01    0.1174089718E+02    0.2441406250E-03    0    0
   24    2    9    9    0    0    0.1974547005E+02   -0.8197893143E+01    0.9757053375E+01    0.2352847481E+02    0.1140161514E+01    0    0
  211    1   16   16    0    0    0.2754071712E+01   -0.1122713804E+01    0.1617312312E+01    0.3388299942E+01    0.1395685226E+00    0    0
  111    1   16   16    0    0    0.9262515068E+01   -0.4261784554E+01    0.4551629543E+01    0.1116658211E+02    0.1349637657E+00    0    0
   22    1   16   16    0    0    0.7728881836E+01   -0.2813394070E+01    0.3588111401E+01    0.8973591805E+01    0.9923942707E-04    0    0
</event>
<event>
   16 9999    1    0.9119999695E+02    0.7565275169E-02    0.1185000000E+00
   11   -1    0    0    0    0    0.0000000000E+00    0.0000000000E+00    0.8000000000E+02    0.8000000000E+02    0.5109988851E-03    0    0
  -11   -1    0    0    0    0    0.0000000000E+00    0.0000000000E+00   -0.8000000000E+02    0.8000000000E+02    0.5109988851E-03    0    0
  -24    2    1    2    0    0    0.3479017973E+01    0.8620694160E+01   -0.2996745586E+01    0.8043859100E+02    0.7984338379E+02    0    0
   24    2    1    2    0    0   -0.3478916168E+01   -0.8636538506E+01    0.3031366348E+01    0.7952333832E+02    0.7891818237E+02    0    0
   22    1    1    2    0    0   -0.1018860567E-03    0.1584449783E-01   -0.3462086618E-01    0.3807443753E-01    0.0000000000E+00    0    0
   15    2    3    3    0    0   -0.3637432098E+02    0.1455886459E+02   -0.7377440453E+01    0.3990784836E+02    0.1777029991E+01    0    0
  -16    1    3    3    0    0    0.3985334015E+02   -0.5938170433E+01    0.4380695343E+01    0.4053074265E+02    0.0000000000E+00    0    0
   16    1    4    4    0    0   -0.2212689590E+02    0.2861428833E+02   -0.6503130436E+01    0.3675143433E+02    0.0000000000E+00    0    0
  -15    2    4    4    0    0    0.1864798164E+02   -0.3725082779E+02    0.9534496307E+01    0.4277190399E+02    0.1777029991E+01    0    0
   16    1    6    6    0    0   -0.6369625092E+01    0.2270178795E+01   -0.1242904425E+01    0.6875365257E+01    0.5366670084E-03    0    0
  -24    2    6    6    0    0   -0.3000612831E+02    0.1228925800E+02   -0.6134826183E+01    0.3303405380E+02    0.1489609599E+01    0    0
  310    1   11   11    0    0   -0.1176668358E+02    0.4648105621E+01   -0.2111436367E+01    0.1283610630E+02    0.4977200329E+00    0    0
 -211    1   11   11    0    0   -0.7906682968E+01    0.3505479336E+01   -0.1605695963E+01    0.8797826767E+01    0.1395678222E+00    0    0
  310    1   11   11    0    0   -0.1033275890E+02    0.4135672092E+01   -0.2417693377E+01    0.1140011692E+02    0.4977199733E+00    0    0
  -16    1    9    9    0    0    0.1326101875E+02   -0.2543749428E+02    0.7111234665E+01    0.2955487061E+02    0.4228639591E-03    0    0
  321    1    9    9    0    0    0.5387696743E+01   -0.1181480122E+02    0.2423637867E+01    0.1321871948E+02    0.4936670065E+00    0    0
</event>
<event>
   20 9999    1    0.9119999695E+02    0.7565275169E-02    0.1185000000E+00
   11   -1    0    0    0    0    0.0000000000E+00    0.0000000000E+00    0.8000000000E+02    0.8000000000E+02    0.5109988851E-03    0    0
  -11   -1    0    0    0    0    0.0000000000E+00    0.0000000000E+00   -0.8000000000E+02    0.8000000000E+02    0.5109988851E-03    0    0
  -24    2    1    2    0    0    0.1830648994E+02   -0.8086325645E+01    0.7566230297E+01    0.7778052521E+02    0.7477998352E+02    0    0
   24    2    1    2    0    0   -0.1830648994E+02    0.8086325645E+01   -0.7564190388E+01    0.8221743774E+02    0.7938497162E+02    0    0
   22    1    1    2    0    0    0.2797094556E-08   -0.3749644151E-07   -0.2039881889E-02    0.2039881889E-02    0.0000000000E+00    0    0
   15    2    3    3    0    0   -0.7422349930E+01   -0.3635610962E+02    0.1259608555E+02    0.3922597504E+02    0.1777029991E+01    0    0
  -16    1    3    3    0    0    0.2572883987E+02    0.2826978111E+02   -0.5029855251E+01    0.3855454636E+02    0.0000000000E+00    0    0
   16    1    4    4    0    0    0.2902576685E+01   -0.4885155678E+01    0.3360992050E+02    0.3408689499E+02    0.0000000000E+00    0    0
  -15    2    4    4    0    0   -0.2120906639E+02    0.1297148132E+02   -0.4117411041E+02    0.4813054276E+02    0.1777029991E+01    0    0
   16    1    6    6    0    0   -0.1047170281E+01   -0.5507937908E+01    0.2066806793E+01    0.5975419044E+01    0.5088297185E-03    0    0
  -24    2    6    6    0    0   -0.6375472069E+01   -0.3084960175E+02    0.1052977467E+02    0.3325209808E+02    0.1575250745E+01    0    0
  221    1   11   11    0    0   -0.2114182234E+01   -0.1020624542E+02    0.3093287230E+01    0.1088608456E+02    0.5488000512E+00    0    0
 -211    1   11   11    0    0   -0.2840936899E+01   -0.1204251385E+02    0.4240546227E+01    0.1308032036E+02    0.1395680010E+00    0    0
  111    1   11   11    0    0   -0.1420352578E+01   -0.8600839615E+01    0.3195940256E+01    0.9285693169E+01    0.1349640936E+00    0    0
  -16    1    9    9    0    0   -0.7815997124E+01    0.4652145386E+01   -0.1476861572E+02    0.1734486389E+02    0.6194391754E-03    0    0
   24    2    9    9    0    0   -0.1339390278E+02    0.8319846153E+01   -0.2640711403E+02    0.3078757095E+02    0.1386501789E+01    0    0
  211    1   16   16    0    0   -0.1050282001E+01    0.7185560465E+00   -0.2055241585E+01    0.2421344995E+01    0.1395680308E+00    0    0
  211    1   16   16    0    0   -0.5066581726E+01    0.3087067604E+01   -0.9499667168E+01    0.1120104408E+02    0.1395681798E+00    0    0
 -211    1   16   16    0    0   -0.6789727211E+01    0.4272986412E+01   -0.1354717541E+02    0.1574497509E+02    0.1395680010E+00    0    0
  111    1   16   16    0    0   -0.4873107076E+00    0.2412354499E+00   -0.1305027366E+01    0.1420203447E+01    0.1349637210E+00    0    0
</event>
<event>
   17 9999    1    0.9119999695E+02    0.7565275169E-02    0.1185000000E+00
   11   -1    0    0    0    0    0.0000000000E+00    0.0000000000E+00    0.8000000000E+02    0.8000000000E+02    0.5109988851E-03    0    0
  -11   -1    0    0    0    0    0.0000000000E+00    0.0000000000E+00   -0.8000000000E+02    0.8000000000E+02    0.5109988851E-03    0    0
  -24    2    1    2    0    0    0.5031875134E+01   -0.9440085411E+01    0.6080662251E+01    0.8191786957E+02    0.8098844910E+02    0    0
   24    2    1    2    0    0   -0.5031860828E+01    0.9439990044E+01   -0.6080513000E+01    0.7808194733E+02    0.7710632324E+02    0    0
   22    1    1    2    0    0   -0.1436352159E-04    0.9540447354E-04   -0.1490367431E-03    0.1775395067E-03    0.0000000000E+00    0    0
   15    2    3    3    0    0   -0.1694974899E+02    0.1223180676E+02    0.3422669601E+02    0.4014393616E+02    0.1777029991E+01    0    0
  -16    1    3    3    0    0    0.2198162460E+02   -0.2167189217E+02   -0.2814603233E+02    0.4177393723E+02    0.0000000000E+00    0    0
   16    1    4    4    0    0   -0.3760886383E+02    0.3838909626E+01    0.1287448025E+02    0.3993640137E+02    0.0000000000E+00    0    0
  -15    2    4    4    0    0    0.3257700348E+02    0.5601080418E+01   -0.1895499420E+02    0.3814554977E+02    0.1777029991E+01    0    0
   16    1    6    6    0    0   -0.5455201626E+01    0.3917090416E+01    0.1006701565E+02    0.1210155392E+02    0.1220703125E-03    0    0
   13    1    6    6    0    0   -0.1009415531E+02    0.7063214779E+01    0.2161439705E+02    0.2487919426E+02    0.1056587473E+00    0    0
  -14    1    6    6    0    0   -0.1401059270E+01    0.1251983404E+01    0.2546629906E+01    0.3164767504E+01    0.8631674427E-04    0    0
  -16    1    9    9    0    0    0.1586843014E+01    0.2785398960E+00   -0.1112514257E+01    0.1957892656E+01    0.6587839453E-03    0    0
   24    2    9    9    0    0    0.3099144173E+02    0.5322761059E+01   -0.1784322357E+02    0.3618915558E+02    0.1572612405E+01    0    0
  321    1   14   14    0    0    0.9710656166E+01    0.1521320581E+01   -0.5907718182E+01    0.1147850609E+02    0.4936671257E+00    0    0
  211    1   14   14    0    0    0.8651678085E+01    0.1814802289E+01   -0.4712551594E+01    0.1001861572E+02    0.1395681202E+00    0    0
 -321    1   14   14    0    0    0.1262910652E+02    0.1986638069E+01   -0.7222954750E+01    0.1469203377E+02    0.4936670065E+00    0    0
</event>
<event>
   18 9999    1    0.9119999695E+02    0.7565275169E-02    0.1185000000E+00
   11   -1    0    0    0    0    0.0000000000E+00    0.0000000000E+00    0.8000000000E+02    0.8000000000E+02    0.5109988851E-03    0    0
  -11   -1    0    0    0    0    0.0000000000E+00    0.0000000000E+00   -0.8000000000E+02    0.8000000000E+02    0.5109988851E-03    0    0
  -24    2    1    2    0    0    0.4502139091E+01    0.1090908813E+02    0.7047167420E-01    0.8068671417E+02    0.7981893921E+02    0    0
   24    2    1    2    0    0   -0.4600040436E+01   -0.1045726395E+02   -0.8358275145E-01    0.7883442688E+02    0.7800221252E+02    0    0
   22    1    1    2    0    0    0.9813800454E-01   -0.4530667961E+00    0.2734688669E-01    0.4643796384E+00    0.0000000000E+00    0    0
   22    1    1    2    0    0   -0.6313784397E-03    0.1656949054E-02   -0.1185291726E-01    0.1198481396E-01    0.0000000000E+00    0    0
   22    1    1    2    0    0    0.3947964287E-03   -0.4142514663E-03   -0.1384696690E-02    0.1498283469E-02    0.0000000000E+00    0    0
   22    1    1    2    0    0   -0.1691559959E-07    0.1116732307E-07   -0.9981968906E-03    0.9981968906E-03    0.0000000000E+00    0    0
   15    2    3    3    0    0   -0.2422717667E+02    0.1921707916E+02    0.2650906181E+02    0.4076935577E+02    0.1777029991E+01    0    0
  -16    1    3    3    0    0    0.2872931480E+02   -0.8307990074E+01   -0.2643858910E+02    0.3991735458E+02    0.0000000000E+00    0    0
   16    1    4    4    0    0   -0.2160298920E+02    0.2857638741E+02    0.3903049231E+01    0.3603516006E+02    0.0000000000E+00    0    0
  -15    2    4    4    0    0    0.1700294876E+02   -0.3903364944E+02   -0.3986631870E+01    0.4279926682E+02    0.1777029991E+01    0    0
   16    1    9    9    0    0   -0.1655067635E+02    0.1372241974E+02    0.1888251305E+02    0.2861431503E+02    0.2114319796E-03    0    0
   11    1    9    9    0    0   -0.5662536144E+01    0.4405587673E+01    0.5719797134E+01    0.9175489426E+01    0.5179004511E-03    0    0
  -12    1    9    9    0    0   -0.2014919043E+01    0.1089829326E+01    0.1907797098E+01    0.2981160164E+01    0.3908156941E-03    0    0
  -16    1   12   12    0    0    0.3239175677E+00   -0.3800146282E+00    0.1342538837E-01    0.4995137453E+00    0.1671516657E-03    0    0
  -13    1   12   12    0    0    0.1389130211E+02   -0.3282405853E+02   -0.3134658098E+01    0.3578022003E+02    0.1056587994E+00    0    0
   14    1   12   12    0    0    0.2788399458E+01   -0.5831116676E+01   -0.8655563593E+00    0.6521217823E+01    0.1220703125E-03    0    0
</event>
<event>
   23 9999    1    0.9119999695E+02    0.7565275169E-02    0.1185000000E+00
   11   -1    0    0    0    0    0.0000000000E+00    0.0000000000E+00    0.8000000000E+02    0.8000000000E+02    0.5109988851E-03    0    0
  -11   -1    0    0    0    0    0.0000000000E+00    0.0000000000E+00   -0.8000000000E+02    0.8000000000E+02    0.5109988851E-03    0    0
  -24    2    1    2    0    0   -0.2176886749E+02   -0.1042893887E+02    0.4130917549E+01    0.8502362823E+02    0.8142055511E+02    0    0
   24    2    1    2    0    0    0.2176886559E+02    0.1042893314E+02   -0.4120991707E+01    0.7493105316E+02    0.7081690216E+02    0    0
   22    1    1    2    0    0    0.1684660106E-05    0.6134116120E-05   -0.2762075700E-01    0.2762075700E-01    0.0000000000E+00    0    0
   22    1    1    2    0    0    0.3062544636E-06   -0.5618093724E-06    0.1769457571E-01    0.1769457571E-01    0.0000000000E+00    0    0
   15    2    3    3    0    0   -0.2262147713E+02    0.2814121819E+02    0.2219990158E+02    0.4242231369E+02    0.1777029991E+01    0    0
  -16    1    3    3    0    0    0.8526101708E+00   -0.3857015610E+02   -0.1806898308E+02    0.4260131454E+02    0.0000000000E+00    0    0
   16    1    4    4    0    0    0.1827979326E+01    0.3928863907E+02    0.1503127933E+01    0.3935985565E+02    0.0000000000E+00    0    0
  -15    2    4    4    0    0    0.1994088554E+02   -0.2885970688E+02   -0.5624119282E+01    0.3557119751E+02    0.1777029991E+01    0    0
   16    1    7    7    0    0   -0.8112089038E+00    0.8883300424E+00    0.9730103612E+00    0.1547236085E+01    0.3860202269E-03    0    0
  -24    2    7    7    0    0   -0.2181115913E+02    0.2725399590E+02    0.2122776413E+02    0.4087674713E+02    0.1335549235E+01    0    0
 -321    1   12   12    0    0   -0.7852902412E+01    0.9587481499E+01    0.7640479565E+01    0.1456737804E+02    0.4936670661E+00    0    0
  111    1   12   12    0    0   -0.5018414974E+01    0.6241381168E+01    0.5065351009E+01    0.9477094650E+01    0.1349641830E+00    0    0
  130    1   12   12    0    0   -0.8939839363E+01    0.1142513084E+02    0.8521932602E+01    0.1683227348E+02    0.4977200329E+00    0    0
  -16    1   10   10    0    0    0.2313564539E+01   -0.3555312157E+01   -0.6096568108E+00    0.4285382748E+01    0.4315837214E-04    0    0
   24    2   10   10    0    0    0.1762810707E+02   -0.2530553055E+02   -0.5014684200E+01    0.3128721619E+02    0.1619506478E+01    0    0
  211    1   17   17    0    0    0.2419120073E+01   -0.3355581760E+01   -0.7480725646E+00    0.4206086159E+01    0.1395680159E+00    0    0
  211    1   17   17    0    0    0.1604626179E+01   -0.2502110243E+01   -0.4818955958E+00    0.3014478922E+01    0.1395679861E+00    0    0
 -211    1   17   17    0    0    0.2720264196E+01   -0.3797526121E+01   -0.6228304505E+00    0.4714704514E+01    0.1395679861E+00    0    0
  111    1   17   17    0    0    0.1520523190E+01   -0.2324807882E+01   -0.7565465569E+00    0.2882238865E+01    0.1349639744E+00    0    0
  111    1   17   17    0    0    0.1527541518E+01   -0.1997020841E+01   -0.3584562242E+00    0.2543262005E+01    0.1349640042E+00    0    0
  111    1   17   17    0    0    0.7836031437E+01   -0.1132848454E+02   -0.2046882629E+01    0.1392644501E+02    0.1349640191E+00    0    0
</event>
<event>
   18 9999    1    0.9119999695E+02    0.7565275169E-02    0.1185000000E+00
   11   -1    0    0    0    0    0.0000000000E+00    0.0000000000E+00    0.8000000000E+02    0.8000000000E+02    0.5109988851E-03    0    0
  -11   -1    0    0    0    0    0.0000000000E+00    0.0000000000E+00   -0.8000000000E+02    0.8000000000E+02    0.5109988851E-03    0    0
  -24    2    1    2    0    0   -0.2314094162E+02   -0.5195079803E+01   -0.2805193520E+02    0.6700322723E+02    0.5603596497E+02    0    0
   24    2    1    2    0    0    0.2313144112E+02    0.5203770638E+01    0.4136607742E+02    0.7939261627E+02    0.6348143005E+02    0    0
   22    1    1    2    0    0    0.1638269983E-01   -0.1838929765E-01   -0.1345887661E+02    0.1345889950E+02    0.0000000000E+00    0    0
   22    1    1    2    0    0   -0.6885830779E-02    0.9704118595E-02    0.1347816885E+00    0.1353059113E+00    0.0000000000E+00    0    0
   22    1    1    2    0    0    0.4932976935E-05   -0.5450248409E-05    0.9952119552E-02    0.9952122346E-02    0.0000000000E+00    0    0
   15    2    3    3    0    0   -0.2544348335E+02   -0.2793233299E+02   -0.1989038277E+02    0.4273606491E+02    0.1777029991E+01    0    0
  -16    1    3    3    0    0    0.2302541018E+01    0.2273725319E+02   -0.8161553383E+01    0.2426716423E+02    0.0000000000E+00    0    0
   16    1    4    4    0    0   -0.1187953758E+02    0.1488735867E+02    0.3844784546E+02    0.4290680313E+02    0.0000000000E+00    0    0
  -15    2    4    4    0    0    0.3501097870E+02   -0.9683588028E+01    0.2918233633E+01    0.3648580933E+02    0.1777029991E+01    0    0
   16    1    8    8    0    0   -0.2469838333E+02   -0.2737887001E+02   -0.1956945229E+02    0.4174417496E+02    0.1431401324E-03    0    0
 -211    1    8    8    0    0   -0.7461026907E+00   -0.5545633435E+00   -0.3217139840E+00    0.9935737848E+00    0.1395680308E+00    0    0
  -16    1   11   11    0    0    0.4027763367E+01   -0.7437132597E+00    0.3636401892E+00    0.4111960888E+01    0.2892511548E-03    0    0
   24    2   11   11    0    0    0.3098459244E+02   -0.8940255165E+01    0.2554708481E+01    0.3237528610E+02    0.1288196206E+01    0    0
  211    1   15   15    0    0    0.2944015980E+01   -0.5802945495E+00    0.2392521799E+00    0.3013418674E+01    0.1395677477E+00    0    0
  111    1   15   15    0    0    0.2629743004E+02   -0.7969448566E+01    0.2307097435E+01    0.2757549286E+02    0.1349647790E+00    0    0
   22    1   15   15    0    0    0.1743150592E+01   -0.3905131817E+00    0.8359006606E-02    0.1786377430E+01    0.1495049946E-03    0    0
</event>
<event>
   20 9999    1    0.9119999695E+02    0.7565275169E-02    0.1185000000E+00
   11   -1    0    0    0    0    0.0000000000E+00    0.0000000000E+00    0.8000000000E+02    0.8000000000E+02    0.5109988851E-03    0    0
  -11   -1    0    0    0    0    0.0000000000E+00    0.0000000000E+00   -0.8000000000E+02    0.8000000000E+02    0.5109988851E-03    0    0
  -24    2    1    2    0    0    0.4452349663E+01    0.1623304176E+02    0.4431110859E+01    0.7607651520E+02    0.7405853271E+02    0    0
   24    2    1    2    0    0   -0.4280292511E+01   -0.1613282394E+02   -0.3982109070E+01    0.8343190002E+02    0.8164824677E+02    0    0
   22    1    1    2    0    0   -0.1709546894E+00   -0.9816184640E-01   -0.4377110004E+00    0.4800543487E+00    0.0000000000E+00    0    0
   22    1    1    2    0    0   -0.1102162176E-02   -0.2056400757E-02   -0.1129070017E-01    0.1152924355E-01    0.0000000000E+00    0    0
   15    2    3    3    0    0    0.3925823975E+02    0.1016087341E+02    0.3342486620E+01    0.4072815704E+02    0.1777029991E+01    0    0
  -16    1    3    3    0    0   -0.3480588913E+02    0.6072168350E+01    0.1088624001E+01    0.3534835815E+02    0.0000000000E+00    0    0
   16    1    4    4    0    0    0.2355355644E+02   -0.2078501892E+02    0.2704634094E+02    0.4145228195E+02    0.0000000000E+00    0    0
  -15    2    4    4    0    0   -0.2783384895E+02    0.4652194977E+01   -0.3102845001E+02    0.4197962189E+02    0.1777029991E+01    0    0
   16    1    7    7    0    0    0.3971869230E+01    0.7932488918E+00    0.2075402737E+00    0.4055621147E+01    0.2283726499E-03    0    0
  -24    2    7    7    0    0    0.3528791809E+02    0.9368023872E+01    0.3135077953E+01    0.3667414093E+02    0.1472038150E+01    0    0
 -321    1   12   12    0    0    0.1501133919E+02    0.4005213261E+01    0.1617243290E+01    0.1562821865E+02    0.4936669767E+00    0    0
  111    1   12   12    0    0    0.3800076962E+01    0.1199805856E+01    0.4099883437E+00    0.4008294582E+01    0.1349640340E+00    0    0
  130    1   12   12    0    0    0.1647650337E+02    0.4163006306E+01    0.1107846737E+01    0.1703763008E+02    0.4977200627E+00    0    0
  -16    1   10   10    0    0   -0.3577525377E+01    0.7261273265E+00   -0.4398633480E+01    0.5716111183E+01    0.5179004511E-03    0    0
   24    2   10   10    0    0   -0.2425741959E+02    0.3926250696E+01   -0.2663103676E+02    0.3626516342E+02    0.1453279018E+01    0    0
  321    1   17   17    0    0   -0.1302929115E+02    0.2234410524E+01   -0.1513688564E+02    0.2010283661E+02    0.4936669767E+00    0    0
  211    1   17   17    0    0   -0.4189810276E+01    0.5254786611E+00   -0.4134550571E+01    0.5911397934E+01    0.1395687312E+00    0    0
 -211    1   17   17    0    0   -0.7038315773E+01    0.1166361213E+01   -0.7359599590E+01    0.1025092506E+02    0.1395680606E+00    0    0
</event>
<event>
   20 9999    1    0.9119999695E+02    0.7565275169E-02    0.1185000000E+00
   11   -1    0    0    0    0    0.0000000000E+00    0.0000000000E+00    0.8000000000E+02    0.8000000000E+02    0.5109988851E-03    0    0
  -11   -1    0    0    0    0    0.0000000000E+00    0.0000000000E+00   -0.8000000000E+02    0.8000000000E+02    0.5109988851E-03    0    0
  -24    2    1    2    0    0   -0.3599949121E+01   -0.7145728111E+01    0.1196880639E-01    0.7818356323E+02    0.7777305603E+02    0    0
   24    2    1    2    0    0    0.3598799229E+01    0.7146607876E+01    0.1084002733E+01    0.8072042084E+02    0.8031553650E+02    0    0
   22    1    1    2    0    0    0.1055825735E-02   -0.9172146092E-03   -0.1095881343E+01    0.1095882297E+01    0.0000000000E+00    0    0
   22    1    1    2    0    0    0.9419509297E-04    0.3724274575E-04   -0.9017370758E-04    0.1356135472E-03    0.0000000000E+00    0    0
   15    2    3    3    0    0    0.1171871471E+02    0.1904275322E+02    0.2870204163E+02    0.3642691040E+02    0.1777029991E+01    0    0
  -16    1    3    3    0    0   -0.1531866360E+02   -0.2618848038E+02   -0.2869007111E+02    0.4175665665E+02    0.0000000000E+00    0    0
   16    1    4    4    0    0    0.2781657219E+02    0.2436310005E+02    0.2318599510E+02    0.4364530563E+02    0.0000000000E+00    0    0
  -15    2    4    4    0    0   -0.2421777344E+02   -0.1721649170E+02   -0.2210199356E+02    0.3707511139E+02    0.1777029991E+01    0    0
   16    1    7    7    0    0    0.3962787867E+01    0.6197037220E+01    0.9015148163E+01    0.1163528538E+02    0.3452669771E-03    0    0
  -24    2    7    7    0    0    0.7756387711E+01    0.1284646511E+02    0.1968802071E+02    0.2479305649E+02    0.1372686028E+01    0    0
 -211    1   12   12    0    0    0.2281615019E+01    0.3648553610E+01    0.6377936363E+01    0.7695145607E+01    0.1395678520E+00    0    0
  111    1   12   12    0    0    0.1582444191E+01    0.3143915892E+01    0.4768164158E+01    0.5928063869E+01    0.1349640638E+00    0    0
   22    1   12   12    0    0    0.3892329216E+01    0.6053996563E+01    0.8541922569E+01    0.1116984940E+02    0.1726334885E-03    0    0
  -16    1   10   10    0    0   -0.2141442299E+01   -0.1703026175E+01   -0.2207055807E+01    0.3515276432E+01    0.2625221387E-03    0    0
   24    2   10   10    0    0   -0.2207728386E+02   -0.1551414299E+02   -0.1989580727E+02    0.3356129837E+02    0.1556396484E+01    0    0
  310    1   17   17    0    0   -0.1259531403E+02   -0.8617573738E+01   -0.1128173065E+02    0.1898498535E+02    0.4977200031E+00    0    0
  211    1   17   17    0    0   -0.1660323143E+01   -0.9715331793E+00   -0.1260450244E+01    0.2304075480E+01    0.1395679265E+00    0    0
  310    1   17   17    0    0   -0.7821649075E+01   -0.5925037384E+01   -0.7353628635E+01    0.1227223873E+02    0.4977200925E+00    0    0
</event>
<event>
   24 9999    1    0.9119999695E+02    0.7565275169E-02    0.1185000000E+00
   11   -1    0    0    0    0    0.0000000000E+00    0.0000000000E+00    0.8000000000E+02    0.8000000000E+02    0.5109988851E-03    0    0
  -11   -1    0    0    0    0    0.0000000000E+00    0.0000000000E+00   -0.8000000000E+02    0.8000000000E+02    0.5109988851E-03    0    0
  -24    2    1    2    0    0   -0.1866890788E+01    0.1255475712E+02    0.4019543171E+01    0.8101540375E+02    0.7991390228E+02    0    0
   24    2    1    2    0    0    0.1860359788E+01   -0.1255971336E+02    0.1022769094E+01    0.7367939758E+02    0.7256996918E+02    0    0
   22    1    1    2    0    0   -0.1012097578E-02    0.3249284578E-02   -0.4482512951E+01    0.4482514381E+01    0.0000000000E+00    0    0
   22    1    1    2    0    0    0.7303332444E-02    0.1276900410E-02   -0.4280109704E+00    0.4280751646E+00    0.0000000000E+00    0    0
   22    1    1    2    0    0    0.2145632752E-03    0.4424715880E-03   -0.2121082395E+00    0.2121088058E+00    0.0000000000E+00    0    0
   22    1    1    2    0    0    0.2001022585E-04   -0.4781054031E-05    0.1314107031E+00    0.1314107031E+00    0.0000000000E+00    0    0
   22    1    1    2    0    0    0.5130034879E-05   -0.8291440281E-05   -0.5099688098E-01    0.5099688470E-01    0.0000000000E+00    0    0
   22    1    1    2    0    0    0.2002872890E-07    0.1624960966E-07   -0.9383982979E-04    0.9383983706E-04    0.0000000000E+00    0    0
   15    2    3    3    0    0   -0.1666412163E+02    0.1119880080E+01    0.3838077164E+02    0.4189496994E+02    0.1777029991E+01    0    0
  -16    1    3    3    0    0    0.1479723072E+02    0.1143487740E+02   -0.3436122894E+02    0.3912043381E+02    0.0000000000E+00    0    0
   16    1    4    4    0    0   -0.8371798515E+01    0.1289225864E+02   -0.2909286690E+02    0.3290428925E+02    0.0000000000E+00    0    0
  -15    2    4    4    0    0    0.1023215771E+02   -0.2545197105E+02    0.3011563683E+02    0.4077510834E+02    0.1777029991E+01    0    0
   16    1   11   11    0    0   -0.3014756680E+01    0.4832817316E+00    0.7365712643E+01    0.7973458767E+01    0.5142913433E-03    0    0
  -24    2   11   11    0    0   -0.1365002060E+02    0.6366424561E+00    0.3101656723E+02    0.3392316055E+02    0.1422977090E+01    0    0
 -211    1   16   16    0    0   -0.8010262489E+01    0.8392388821E+00    0.1818818855E+02    0.1989216805E+02    0.1395680755E+00    0    0
  310    1   16   16    0    0   -0.4085104942E+01   -0.1333573163E+00    0.9529029846E+01    0.1038055897E+02    0.4977199435E+00    0    0
  111    1   16   16    0    0   -0.1554651856E+01   -0.6923901290E-01    0.3299346447E+01    0.3650429964E+01    0.1349639446E+00    0    0
  -16    1   14   14    0    0    0.1692925453E+01   -0.3827358723E+01    0.4592230797E+01    0.6213151455E+01    0.2348441194E-03    0    0
   24    2   14   14    0    0    0.8539635658E+01   -0.2162561607E+02    0.2552459145E+02    0.3456356049E+02    0.1594467998E+01    0    0
  310    1   21   21    0    0    0.4374559402E+01   -0.1202497673E+02    0.1391904545E+02    0.1891360283E+02    0.4977199733E+00    0    0
  211    1   21   21    0    0    0.1338463306E+01   -0.2892500401E+01    0.3888833284E+01    0.5029964924E+01    0.1395679563E+00    0    0
  310    1   21   21    0    0    0.2826612473E+01   -0.6708137512E+01    0.7716711044E+01    0.1061999035E+02    0.4977199435E+00    0    0
</event>
<event>
   22 9999    1    0.9119999695E+02    0.7565275169E-02    0.1185000000E+00
   11   -1    0    0    0    0    0.0000000000E+00    0.0000000000E+00    0.8000000000E+02    0.8000000000E+02    0.5109988851E-03    0    0
  -11   -1    0    0    0    0    0.0000000000E+00    0.0000000000E+00   -0.8000000000E+02    0.8000000000E+02    0.5109988851E-03    0    0
  -24    2    1    2    0    0   -0.8578186631E+00   -0.1632244873E+02   -0.1719394112E+02    0.8631191254E+02    0.8298768616E+02    0    0
   24    2    1    2    0    0    0.8575246930E+00    0.1632233238E+02    0.2046620178E+02    0.7041583252E+02    0.6536336517E+02    0    0
   22    1    1    2    0    0    0.1035248570E-03    0.5011006942E-04   -0.3148185730E+01    0.3148185730E+01    0.0000000000E+00    0    0
   22    1    1    2    0    0    0.1864197111E-03    0.7220540283E-04   -0.1236798465E+00    0.1236800104E+00    0.0000000000E+00    0    0
   22    1    1    2    0    0    0.4011380042E-05   -0.6282758022E-05   -0.3941591713E-03    0.3942296316E-03    0.0000000000E+00    0    0
   15    2    3    3    0    0    0.2645546675E+01   -0.2874638176E+02    0.2742832565E+02    0.3986005783E+02    0.1777029991E+01    0    0
  -16    1    3    3    0    0   -0.3503365278E+01    0.1242393303E+02   -0.4462226868E+02    0.4645185089E+02    0.0000000000E+00    0    0
   16    1    4    4    0    0    0.2008155632E+02    0.3365579605E+02    0.3352985144E+01    0.3933477020E+02    0.0000000000E+00    0    0
  -15    2    4    4    0    0   -0.1922403145E+02   -0.1733346367E+02    0.1711321640E+02    0.3108106232E+02    0.1777029991E+01    0    0
   16    1    8    8    0    0    0.1099873424E+01   -0.1282086945E+02    0.1175449467E+02    0.1742849922E+02    0.2114319796E-03    0    0
  -24    2    8    8    0    0    0.1545777440E+01   -0.1592664337E+02    0.1567491150E+02    0.2243313026E+02    0.1222718835E+01    0    0
  111    1   13   13    0    0    0.5328735709E+00   -0.4652524471E+01    0.4498235703E+01    0.6494788647E+01    0.1349641234E+00    0    0
  111    1   13   13    0    0    0.2050076574E+00   -0.2987167358E+01    0.2686501265E+01    0.4025009632E+01    0.1349635124E+00    0    0
  111    1   13   13    0    0    0.7239802480E+00   -0.5200645447E+01    0.5006501198E+01    0.7256316662E+01    0.1349639744E+00    0    0
 -211    1   13   13    0    0    0.8391582221E-01   -0.3086305380E+01    0.3483672142E+01    0.4657013416E+01    0.1395679563E+00    0    0
  -16    1   11   11    0    0   -0.4654455662E+01   -0.3888067484E+01    0.3725959539E+01    0.7117850780E+01    0.5142913433E-03    0    0
   24    2   11   11    0    0   -0.1457033253E+02   -0.1344607830E+02    0.1338792992E+02    0.2396443367E+02    0.1402063727E+01    0    0
  111    1   19   19    0    0   -0.1646953583E+01   -0.1232390761E+01    0.1191067934E+01    0.2380777359E+01    0.1349641234E+00    0    0
  111    1   19   19    0    0   -0.3939208508E+01   -0.4119567394E+01    0.3722754002E+01    0.6809207916E+01    0.1349634975E+00    0    0
  321    1   19   19    0    0   -0.8984170914E+01   -0.8094120979E+01    0.8474108696E+01    0.1477444839E+02    0.4936669767E+00    0    0
</event>
<event>
   18 9999    1    0.9119999695E+02    0.7565275169E-02    0.1185000000E+00
   11   -1    0    0    0    0    0.0000000000E+00    0.0000000000E+00    0.8000000000E+02    0.8000000000E+02    0.5109988851E-03    0    0
  -11   -1    0    0    0    0    0.0000000000E+00    0.0000000000E+00   -0.8000000000E+02    0.8000000000E+02    0.5109988851E-03    0    0
  -24    2    1    2    0    0    0.4014997482E+01   -0.2310283279E+02    0.1870382118E+02    0.6386428070E+02    0.5638219833E+02    0    0
   24    2    1    2    0    0   -0.3262975931E+01    0.2249012375E+02   -0.6857403755E+01    0.8424614716E+02    0.8083277130E+02    0    0
   22    1    1    2    0    0   -0.7424592376E+00    0.6085215211E+00   -0.1114498329E+02    0.1118625069E+02    0.0000000000E+00    0    0
   22    1    1    2    0    0   -0.1772123651E-03   -0.6059061852E-03   -0.6729812622E+00    0.6729815602E+00    0.0000000000E+00    0    0
   22    1    1    2    0    0   -0.9385162964E-02    0.4794062581E-02   -0.2845195867E-01    0.3034103289E-01    0.0000000000E+00    0    0
   15    2    3    3    0    0   -0.1627308464E+02    0.1533121586E+01   -0.1138802814E+02    0.2000021935E+02    0.1777029991E+01    0    0
  -16    1    3    3    0    0    0.2028808212E+02   -0.2463595581E+02    0.3009184837E+02    0.4386406326E+02    0.0000000000E+00    0    0
   16    1    4    4    0    0   -0.2996444321E+02    0.3712927246E+02    0.1091304493E+02    0.4894430923E+02    0.0000000000E+00    0    0
  -15    2    4    4    0    0    0.2670146751E+02   -0.1463914776E+02   -0.1777044868E+02    0.3530183792E+02    0.1777029991E+01    0    0
   16    1    8    8    0    0   -0.1172348499E+02    0.1723212600E+01   -0.7870372772E+01    0.1422506046E+02    0.3229676804E-03    0    0
 -321    1    8    8    0    0   -0.4550240517E+01   -0.1900306493E+00   -0.3518104315E+01    0.5775947094E+01    0.4936670363E+00    0    0
  -16    1   11   11    0    0    0.4210001528E+00   -0.1065817177E+00   -0.2440668941E+00    0.4981660843E+00    0.2796722038E-04    0    0
   24    2   11   11    0    0    0.2628151894E+02   -0.1453314304E+02   -0.1752708244E+02    0.3480506134E+02    0.1504401803E+01    0    0
  321    1   15   15    0    0    0.9350469589E+01   -0.4825332165E+01   -0.6290805817E+01    0.1226919174E+02    0.4936669469E+00    0    0
  211    1   15   15    0    0    0.3804235935E+01   -0.2434923172E+01   -0.2507542610E+01    0.5168008327E+01    0.1395682693E+00    0    0
 -321    1   15   15    0    0    0.1312681198E+02   -0.7272886753E+01   -0.8728732109E+01    0.1736785889E+02    0.4936669767E+00    0    0
</event>
<event>
   16 9999    1    0.9119999695E+02    0.7565275169E-02    0.1185000000E+00
   11   -1    0    0    0    0    0.0000000000E+00    0.0000000000E+00    0.8000000000E+02    0.8000000000E+02    0.5109988851E-03    0    0
  -11   -1    0    0    0    0    0.0000000000E+00    0.0000000000E+00   -0.8000000000E+02    0.8000000000E+02    0.5109988851E-03    0    0
  -24    2    1    2    0    0   -0.1122540283E+02    0.5880360603E+01    0.6431636333E+01    0.8090128326E+02    0.7964334869E+02    0    0
   24    2    1    2    0    0    0.1122539997E+02   -0.5880356789E+01   -0.6406569481E+01    0.7907365417E+02    0.7778823853E+02    0    0
   22    1    1    2    0    0    0.2210371804E-05   -0.4060806532E-05   -0.2506682463E-01    0.2506682463E-01    0.0000000000E+00    0    0
   15    2    3    3    0    0    0.1092918682E+02    0.2364935112E+02    0.3295169449E+02    0.4204415512E+02    0.1777029991E+01    0    0
  -16    1    3    3    0    0   -0.2215458870E+02   -0.1776898956E+02   -0.2652005768E+02    0.3885712433E+02    0.0000000000E+00    0    0
   16    1    4    4    0    0    0.3971662903E+02   -0.1809760666E+02   -0.1613775826E+02    0.4653344345E+02    0.0000000000E+00    0    0
  -15    2    4    4    0    0   -0.2849123001E+02    0.1221724987E+02    0.9731188774E+01    0.3254021072E+02    0.1777029991E+01    0    0
   16    1    6    6    0    0    0.3878440380E+01    0.7713494301E+01    0.1145988178E+02    0.1434814167E+02    0.2283726499E-03    0    0
   13    1    6    6    0    0    0.6709378242E+01    0.1484782028E+02    0.2048548317E+02    0.2617517281E+02    0.1056591347E+00    0    0
  -14    1    6    6    0    0    0.3417984545E+00    0.1088967443E+01    0.1007626414E+01    0.1522493720E+01    0.1057159898E-03    0    0
  -16    1    9    9    0    0   -0.5295713425E+01    0.2585445881E+01    0.2380600452E+01    0.6355813503E+01    0.1726334885E-03    0    0
  323    2    9    9    0    0   -0.2319663811E+02    0.9632285118E+01    0.7350971699E+01    0.2618567848E+02    0.8876709938E+00    0    0
  111    1   14   14    0    0   -0.1249983311E+02    0.4932096958E+01    0.3947877645E+01    0.1400626183E+02    0.1349638700E+00    0    0
  321    1   14   14    0    0   -0.1069680405E+02    0.4700188160E+01    0.3403093815E+01    0.1217941475E+02    0.4936669767E+00    0    0
</event>
<event>
   18 9999    1    0.9119999695E+02    0.7565275169E-02    0.1185000000E+00
   11   -1    0    0    0    0    0.0000000000E+00    0.0000000000E+00    0.8000000000E+02    0.8000000000E+02    0.5109988851E-03    0    0
  -11   -1    0    0    0    0    0.0000000000E+00    0.0000000000E+00   -0.8000000000E+02    0.8000000000E+02    0.5109988851E-03    0    0
  -24    2    1    2    0    0    0.1041788006E+02   -0.1789424539E+01    0.8995228410E+00    0.8186090851E+02    0.8117058563E+02    0    0
   24    2    1    2    0    0   -0.1041788006E+02    0.1789424539E+01   -0.8995228410E+00    0.7813909149E+02    0.7741559601E+02    0    0
   15    2    3    3    0    0    0.4082423401E+02   -0.3674375772E+01    0.2026752090E+02    0.4576078415E+02    0.1777029991E+01    0    0
  -16    1    3    3    0    0   -0.3040635300E+02    0.1884951234E+01   -0.1936799812E+02    0.3610012054E+02    0.0000000000E+00    0    0
   16    1    4    4    0    0    0.3169387245E+02    0.1147187614E+02   -0.7111416817E+01    0.3444818878E+02    0.0000000000E+00    0    0
  -15    2    4    4    0    0   -0.4211175537E+02   -0.9682451248E+01    0.6211894035E+01    0.4369090271E+02    0.1777029991E+01    0    0
   16    1    5    5    0    0    0.5357485771E+01   -0.6931015253E+00    0.2750649214E+01    0.6062104702E+01    0.7431515842E-03    0    0
  -24    2    5    5    0    0    0.3546835327E+02   -0.2981418610E+01    0.1751766968E+02    0.3970047760E+02    0.1538287640E+01    0    0
  130    1   10   10    0    0    0.1589750767E+02   -0.1342094302E+01    0.8156260490E+01    0.1792496300E+02    0.4977201223E+00    0    0
 -211    1   10   10    0    0    0.4399781227E+01   -0.1968079954E+00    0.2334797382E+01    0.4986739159E+01    0.1395679563E+00    0    0
  310    1   10   10    0    0    0.1517106056E+02   -0.1442516088E+01    0.7026610374E+01    0.1678877258E+02    0.4977200031E+00    0    0
  -16    1    8    8    0    0   -0.2999729156E+01   -0.5213874578E+00    0.6695056558E+00    0.3117444277E+01    0.5106567405E-03    0    0
   24    2    8    8    0    0   -0.3911368179E+02   -0.9161444664E+01    0.5542632580E+01    0.4057517624E+02    0.1346197605E+01    0    0
  111    1   15   15    0    0   -0.6028706551E+01   -0.1533986211E+01    0.1086136580E+01    0.6316353798E+01    0.1349633187E+00    0    0
  111    1   15   15    0    0   -0.1026544952E+02   -0.2630826473E+01    0.1643212199E+01    0.1072469425E+02    0.1349638253E+00    0    0
  321    1   15   15    0    0   -0.2281952667E+02   -0.4996633053E+01    0.2813284159E+01    0.2353413391E+02    0.4936668277E+00    0    0
</event>
<event>
   20 9999    1    0.9119999695E+02    0.7565275169E-02    0.1185000000E+00
   11   -1    0    0    0    0    0.0000000000E+00    0.0000000000E+00    0.8000000000E+02    0.8000000000E+02    0.5109988851E-03    0    0
  -11   -1    0    0    0    0    0.0000000000E+00    0.0000000000E+00   -0.8000000000E+02    0.8000000000E+02    0.5109988851E-03    0    0
  -24    2    1    2    0    0    0.7681516647E+01   -0.3058465719E+01   -0.8348304749E+01    0.7892720795E+02    0.7804774475E+02    0    0
   24    2    1    2    0    0   -0.7681517124E+01    0.3058465242E+01    0.8348419189E+01    0.8107267761E+02    0.8021672058E+02    0    0
   22    1    1    2    0    0    0.3780594966E-06    0.5204262266E-06   -0.1143908594E-03    0.1143926711E-03    0.0000000000E+00    0    0
   15    2    3    3    0    0    0.3082354307E+01   -0.3559843445E+02   -0.2343319702E+02    0.4276706696E+02    0.1777029991E+01    0    0
  -16    1    3    3    0    0    0.4599162579E+01    0.3253997040E+02    0.1508489323E+02    0.3616014099E+02    0.0000000000E+00    0    0
   16    1    4    4    0    0   -0.1107968569E+01   -0.2721165276E+02    0.3202850723E+02    0.4204196930E+02    0.0000000000E+00    0    0
  -15    2    4    4    0    0   -0.6573548794E+01    0.3027011871E+02   -0.2368008995E+02    0.3903070831E+02    0.1777029991E+01    0    0
   16    1    6    6    0    0    0.1840708256E+00   -0.3480543852E+01   -0.2204814196E+01    0.4124229908E+01    0.0000000000E+00    0    0
  -24    2    6    6    0    0    0.2898405075E+01   -0.3211929321E+02   -0.2122930717E+02    0.3864452362E+02    0.1632753015E+01    0    0
 -211    1   11   11    0    0    0.6164653301E+00   -0.3838440180E+01   -0.2371390820E+01    0.4555943966E+01    0.1395680010E+00    0    0
 -211    1   11   11    0    0    0.1779515296E+00   -0.2059830427E+01   -0.1452948689E+01    0.2530831337E+01    0.1395680010E+00    0    0
  211    1   11   11    0    0    0.6388264298E+00   -0.7879961967E+01   -0.5493814468E+01    0.9628259659E+01    0.1395680159E+00    0    0
  111    1   11   11    0    0    0.2591564655E+00   -0.5428140640E+01   -0.3705270052E+01    0.6578686714E+01    0.1349639893E+00    0    0
  111    1   11   11    0    0    0.7856209874E+00   -0.8113498688E+01   -0.5055690289E+01    0.9592928886E+01    0.1349639893E+00    0    0
  111    1   11   11    0    0    0.4203841984E+00   -0.4799421787E+01   -0.3150192022E+01    0.5757872581E+01    0.1349639893E+00    0    0
  -16    1    9    9    0    0   -0.1234995723E+01    0.8848730087E+01   -0.6401468277E+01    0.1099108315E+02    0.2114319796E-03    0    0
  321    1    9    9    0    0   -0.4895421028E+01    0.1945353889E+02   -0.1570103073E+02    0.2547884560E+02    0.4936670959E+00    0    0
   22    1    9    9    0    0   -0.4431318939E+00    0.1967848539E+01   -0.1577590942E+01    0.2560778618E+01    0.0000000000E+00    0    0
</event>
<event>
   19 9999    1    0.9119999695E+02    0.7565275169E-02    0.1185000000E+00
   11   -1    0    0    0    0    0.0000000000E+00    0.0000000000E+00    0.8000000000E+02    0.8000000000E+02    0.5109988851E-03    0    0
  -11   -1    0    0    0    0    0.0000000000E+00    0.0000000000E+00   -0.8000000000E+02    0.8000000000E+02    0.5109988851E-03    0    0
  -24    2    1    2    0    0   -0.7238089085E+01   -0.6338291168E+00    0.1333090305E+02    0.8014379120E+02    0.7869258118E+02    0    0
   24    2    1    2    0    0    0.7238044262E+01    0.6339197159E+00   -0.1295784569E+02    0.7948315430E+02    0.7808248138E+02    0    0
   22    1    1    2    0    0    0.4515326145E-04   -0.9061156743E-04   -0.3730568588E+00    0.3730568588E+00    0.0000000000E+00    0    0
   15    2    3    3    0    0   -0.4089481354E+02    0.1261184883E+02    0.8244990349E+01    0.4361859894E+02    0.1777029991E+01    0    0
  -16    1    3    3    0    0    0.3365672684E+02   -0.1324567795E+02    0.5085912704E+01    0.3652519226E+02    0.0000000000E+00    0    0
   16    1    4    4    0    0   -0.2633435822E+02    0.2771158218E+01    0.1935859489E+02    0.3280141830E+02    0.0000000000E+00    0    0
  -15    2    4    4    0    0    0.3357240295E+02   -0.2137238503E+01   -0.3231644058E+02    0.4668173218E+02    0.1777029991E+01    0    0
   16    1    6    6    0    0   -0.1949900508E+01    0.5694770217E+00    0.2122092247E+00    0.2042412519E+01    0.4315837214E-04    0    0
  -24    2    6    6    0    0   -0.3894652557E+02    0.1204286766E+02    0.8033105850E+01    0.4157790375E+02    0.1526101112E+01    0    0
  130    1   11   11    0    0   -0.1505275536E+02    0.4474000931E+01    0.3343276739E+01    0.1606323051E+02    0.4977201819E+00    0    0
 -211    1   11   11    0    0   -0.7694549084E+01    0.2136396646E+01    0.1499338269E+01    0.8126362801E+01    0.1395678520E+00    0    0
  130    1   11   11    0    0   -0.1619921684E+02    0.5432469368E+01    0.3190489531E+01    0.1738830948E+02    0.4977200627E+00    0    0
  -16    1    9    9    0    0    0.1868169188E+01   -0.2151055485E+00   -0.2069865465E+01    0.2796545982E+01    0.6932261167E-03    0    0
   24    2    9    9    0    0    0.3170555305E+02   -0.1922217011E+01   -0.3024784470E+02    0.4388702011E+02    0.1483745456E+01    0    0
  321    1   16   16    0    0    0.1588560677E+02   -0.8505260348E+00   -0.1566645813E+02    0.2233288002E+02    0.4936670065E+00    0    0
  211    1   16   16    0    0    0.5376074314E+01   -0.1156763583E+00   -0.4669373512E+01    0.7123067379E+01    0.1395685971E+00    0    0
 -211    1   16   16    0    0    0.1044386864E+02   -0.9560143948E+00   -0.9912011147E+01    0.1443107128E+02    0.1395680308E+00    0    0
</event>
<event>
   18 9999    1    0.9119999695E+02    0.7565275169E-02    0.1185000000E+00
   11   -1    0    0    0    0    0.0000000000E+00    0.0000000000E+00    0.8000000000E+02    0.8000000000E+02    0.5109988851E-03    0    0
  -11   -1    0    0    0    0    0.0000000000E+00    0.0000000000E+00   -0.8000000000E+02    0.8000000000E+02    0.5109988851E-03    0    0
  -24    2    1    2    0    0    0.1540662766E+02   -0.4138499260E+01   -0.1745667267E+02    0.7990170288E+02    0.7632204437E+02    0    0
   24    2    1    2    0    0   -0.1519826508E+02    0.3567516804E+01    0.1803264046E+02    0.7925215149E+02    0.7557786560E+02    0    0
   22    1    1    2    0    0   -0.2083943635E+00    0.5718460679E+00   -0.5537000895E+00    0.8228121996E+00    0.0000000000E+00    0    0
   22    1    1    2    0    0    0.2211614337E-03   -0.8928171592E-03   -0.1835487783E-01    0.1837791130E-01    0.0000000000E+00    0    0
   22    1    1    2    0    0   -0.1894191082E-03    0.2960605889E-04   -0.4432099871E-02    0.4436244257E-02    0.0000000000E+00    0    0
   22    1    1    2    0    0   -0.8962920361E-07   -0.1757136090E-06    0.5197485443E-03    0.5197485443E-03    0.0000000000E+00    0    0
   15    2    3    3    0    0    0.2405897522E+02   -0.3589664459E+02   -0.1385603309E+01    0.4327217484E+02    0.1777029991E+01    0    0
  -16    1    3    3    0    0   -0.8652347565E+01    0.3175814438E+02   -0.1607106972E+02    0.3662952423E+02    0.0000000000E+00    0    0
   16    1    4    4    0    0    0.2869655609E+02   -0.1069413948E+02    0.3456030130E+01    0.3081884193E+02    0.0000000000E+00    0    0
  -15    2    4    4    0    0   -0.4389482117E+02    0.1426165676E+02    0.1457661057E+02    0.4843331146E+02    0.1777029991E+01    0    0
   16    1    9    9    0    0    0.9499148369E+01   -0.1384524250E+02   -0.1091551304E+01    0.1682605362E+02    0.3452669771E-03    0    0
   11    1    9    9    0    0    0.8593731880E+01   -0.1387158203E+02   -0.3474246562E+00    0.1632157135E+02    0.5033087800E-03    0    0
  -12    1    9    9    0    0    0.5967042446E+01   -0.8181232452E+01    0.5331799760E-01    0.1012625313E+02    0.2729575208E-03    0    0
  -16    1   12   12    0    0   -0.3857696152E+02    0.1241131592E+02    0.1258277321E+02    0.4243287277E+02    0.2927143360E-03    0    0
  -13    1   12   12    0    0   -0.3833919048E+01    0.1591149092E+01    0.1419010758E+01    0.4388103008E+01    0.1056588516E+00    0    0
   14    1   12   12    0    0   -0.1485669255E+01    0.2597528696E+00    0.5754002929E+00    0.1614239812E+01    0.4315837214E-04    0    0
</event>
<event>
   22 9999    1    0.9119999695E+02    0.7565275169E-02    0.1185000000E+00
   11   -1    0    0    0    0    0.0000000000E+00    0.0000000000E+00    0.8000000000E+02    0.8000000000E+02    0.5109988851E-03    0    0
  -11   -1    0    0    0    0    0.0000000000E+00    0.0000000000E+00   -0.8000000000E+02    0.8000000000E+02    0.5109988851E-03    0    0
  -24    2    1    2    0    0   -0.1766485214E+01   -0.1733632803E+01   -0.8440999985E+01    0.7914743805E+02    0.7865711212E+02    0    0
   24    2    1    2    0    0    0.1766451359E+01    0.1733601689E+01    0.8593437195E+01    0.8059189606E+02    0.8009420013E+02    0    0
   22    1    1    2    0    0    0.3919589290E-04    0.3181716602E-04   -0.2030906230E+00    0.2030906230E+00    0.0000000000E+00    0    0
   22    1    1    2    0    0   -0.5361663170E-05   -0.6931468874E-06    0.5364524573E-01    0.5364524573E-01    0.0000000000E+00    0    0
   22    1    1    2    0    0   -0.1264946548E-07    0.1150259799E-07   -0.3462055465E-02    0.3462055465E-02    0.0000000000E+00    0    0
   22    1    1    2    0    0   -0.1918841264E-07   -0.1173089126E-09    0.4694758682E-03    0.4694758682E-03    0.0000000000E+00    0    0
   15    2    3    3    0    0   -0.3247767258E+02   -0.8831008524E-01    0.1922206497E+02    0.3778164291E+02    0.1777029991E+01    0    0
  -16    1    3    3    0    0    0.3071118546E+02   -0.1645322680E+01   -0.2766306496E+02    0.4136579514E+02    0.0000000000E+00    0    0
   16    1    4    4    0    0   -0.2026119995E+02   -0.1748183250E+02    0.3298803329E+02    0.4247753525E+02    0.0000000000E+00    0    0
  -15    2    4    4    0    0    0.2202765083E+02    0.1921543312E+02   -0.2439459419E+02    0.3811436081E+02    0.1777029991E+01    0    0
   16    1    9    9    0    0   -0.1406427193E+02   -0.6702023000E-01    0.8169270515E+01    0.1626484680E+02    0.5320921773E-03    0    0
*****    2    9    9    0    0   -0.1841467667E+02   -0.2129332535E-01    0.1105354977E+02    0.2151828194E+02    0.1324669361E+01    0    0
 -211    1   14   14    0    0   -0.3601564765E+00    0.5576821417E-01    0.2156863511E+00    0.4458953440E+00    0.1395681798E+00    0    0
 -211    1   14   14    0    0   -0.4515286922E+01   -0.1623472720E+00    0.3036098003E+01    0.5445322990E+01    0.1395680159E+00    0    0
  211    1   14   14    0    0   -0.1353922939E+02    0.8528574556E-01    0.7801764011E+01    0.1562705994E+02    0.1395680606E+00    0    0
  -16    1   12   12    0    0    0.3362055540E+01    0.2971236944E+01   -0.3351080894E+01    0.5600125790E+01    0.8631674427E-04    0    0
   24    2   12   12    0    0    0.1866646194E+02    0.1624495316E+02   -0.2104447365E+02    0.3251573563E+02    0.1437960029E+01    0    0
  321    1   19   19    0    0    0.5488732338E+01    0.4966783524E+01   -0.6620534897E+01    0.9943354607E+01    0.4936670661E+00    0    0
  211    1   19   19    0    0    0.5145488262E+01    0.4191797733E+01   -0.5930574417E+01    0.8901596069E+01    0.1395680606E+00    0    0
 -211    1   19   19    0    0    0.8032241821E+01    0.7086372375E+01   -0.8493364334E+01    0.1367078304E+02    0.1395679116E+00    0    0
</event>
<event>
   20 9999    1    0.9119999695E+02    0.7565275169E-02    0.1185000000E+00
   11   -1    0    0    0    0    0.0000000000E+00    0.0000000000E+00    0.8000000000E+02    0.8000000000E+02    0.5109988851E-03    0    0
  -11   -1    0    0    0    0    0.0000000000E+00    0.0000000000E+00   -0.8000000000E+02    0.8000000000E+02    0.5109988851E-03    0    0
  -24    2    1    2    0    0    0.2062345886E+02   -0.2090573788E+01    0.2651159477E+02    0.8246646118E+02    0.7528715515E+02    0    0
   24    2    1    2    0    0   -0.2062345886E+02    0.2090573788E+01   -0.2651141167E+02    0.7753335571E+02    0.6984889984E+02    0    0
   22    1    1    2    0    0    0.2514565267E-07    0.1453735177E-07   -0.1827603264E-03    0.1827603264E-03    0.0000000000E+00    0    0
   15    2    3    3    0    0   -0.1146740532E+02   -0.2535797310E+02    0.3200417328E+02    0.4244942093E+02    0.1777029991E+01    0    0
  -16    1    3    3    0    0    0.3209086227E+02    0.2326739883E+02   -0.5492580414E+01    0.4001704407E+02    0.0000000000E+00    0    0
   16    1    4    4    0    0   -0.3569001770E+02    0.1413474941E+02   -0.3881070328E+02    0.5458790207E+02    0.0000000000E+00    0    0
  -15    2    4    4    0    0    0.1506655884E+02   -0.1204417515E+02    0.1229928970E+02    0.2294545174E+02    0.1777029991E+01    0    0
   16    1    6    6    0    0   -0.3612670898E+00   -0.7054044604E+00    0.1086590886E+01    0.1344912291E+01    0.1643421856E-03    0    0
  -24    2    6    6    0    0   -0.1110659027E+02   -0.2465356636E+02    0.3091884422E+02    0.4110617828E+02    0.1608820677E+01    0    0
  310    1   11   11    0    0   -0.4354894161E+01   -0.1057617378E+02    0.1341384315E+02    0.1763517761E+02    0.4977200627E+00    0    0
 -211    1   11   11    0    0   -0.1260225296E+01   -0.2886433840E+01    0.3818377495E+01    0.4951682091E+01    0.1395674944E+00    0    0
  130    1   11   11    0    0   -0.5491470814E+01   -0.1119095898E+02    0.1368662453E+02    0.1851931953E+02    0.4977200329E+00    0    0
  -16    1    9    9    0    0    0.5042796135E+01   -0.3600943089E+01    0.3612073421E+01    0.7172423363E+01    0.3229676804E-03    0    0
   24    2    9    9    0    0    0.1002435684E+02   -0.8443706512E+01    0.8687701225E+01    0.1577393150E+02    0.1247743964E+01    0    0
  211    1   16   16    0    0    0.1122094989E+01   -0.7969126105E+00    0.1042337656E+01    0.1732083678E+01    0.1395681649E+00    0    0
  211    1   16   16    0    0    0.6734885573E+00   -0.5852274299E+00    0.5003803968E+00    0.1032442570E+01    0.1395681202E+00    0    0
 -211    1   16   16    0    0    0.6876362324E+01   -0.5549946308E+01    0.5882696152E+01    0.1061658382E+02    0.1395678073E+00    0    0
  111    1   16   16    0    0    0.1352411151E+01   -0.1511620760E+01    0.1262287021E+01    0.2392822027E+01    0.1349640340E+00    0    0
</event>
<event>
   20 9999    1    0.9119999695E+02    0.7565275169E-02    0.1185000000E+00
   11   -1    0    0    0    0    0.0000000000E+00    0.0000000000E+00    0.8000000000E+02    0.8000000000E+02    0.5109988851E-03    0    0
  -11   -1    0    0    0    0    0.0000000000E+00    0.0000000000E+00   -0.8000000000E+02    0.8000000000E+02    0.5109988851E-03    0    0
  -24    2    1    2    0    0   -0.5302875519E+01    0.1968826294E+02    0.3201827621E+02    0.7028999329E+02    0.5915880966E+02    0    0
   24    2    1    2    0    0    0.5284147263E+01   -0.1969483566E+02   -0.3191001511E+02    0.8959993744E+02    0.8120401001E+02    0    0
   22    1    1    2    0    0    0.1872849092E-01    0.6573130377E-02   -0.1082626507E+00    0.1100670844E+00    0.0000000000E+00    0    0
   15    2    3    3    0    0   -0.2702514839E+02   -0.8095601201E+00    0.8311623335E+00    0.2710835266E+02    0.1777029991E+01    0    0
  -16    1    3    3    0    0    0.2172227287E+02    0.2049782372E+02    0.3118711472E+02    0.4318164062E+02    0.0000000000E+00    0    0
   16    1    4    4    0    0   -0.1593060875E+02   -0.4638533020E+02   -0.1378046703E+02    0.5094393539E+02    0.0000000000E+00    0    0
  -15    2    4    4    0    0    0.2121475601E+02    0.2669049454E+02   -0.1812954712E+02    0.3865600586E+02    0.1777029991E+01    0    0
   16    1    6    6    0    0   -0.1433452034E+02   -0.8831910789E-01    0.7988068461E+00    0.1435703182E+02    0.2589502255E-03    0    0
  -24    2    6    6    0    0   -0.1269169331E+02   -0.7212729454E+00    0.3238829225E-01    0.1275238800E+02    0.1011449218E+01    0    0
  111    1   11   11    0    0   -0.1830533266E+01   -0.2233319581E+00    0.1063782424E+00    0.1852096319E+01    0.1349644214E+00    0    0
  111    1   11   11    0    0   -0.4850161076E+01   -0.5235575140E-01    0.8659610152E-01    0.4853093624E+01    0.1349640042E+00    0    0
  111    1   11   11    0    0   -0.1665771127E+01   -0.1614137087E-02    0.5088065192E-01    0.1672004819E+01    0.1349640042E+00    0    0
 -211    1   11   11    0    0   -0.4345227718E+01   -0.4439710975E+00   -0.2114667147E+00    0.4375192642E+01    0.1395682544E+00    0    0
  -16    1    9    9    0    0    0.6384874582E+00    0.6617881060E+00   -0.6158056855E+00    0.1106727719E+01    0.1294751128E-03    0    0
   24    2    9    9    0    0    0.2057710457E+02    0.2602975845E+02   -0.1751445580E+02    0.3755080032E+02    0.1529992104E+01    0    0
  221    1   17   17    0    0    0.1267059040E+02    0.1639670563E+02   -0.1086280823E+02    0.2340293884E+02    0.5487999320E+00    0    0
  211    1   17   17    0    0    0.1302658916E+01    0.1557112098E+01   -0.1378190637E+01    0.2457723856E+01    0.1395678520E+00    0    0
  111    1   17   17    0    0    0.6603856564E+01    0.8075942993E+01   -0.5273458481E+01    0.1169013882E+02    0.1349640042E+00    0    0
</event>
<event>
   15 9999    1    0.9119999695E+02    0.7565275169E-02    0.1185000000E+00
   11   -1    0    0    0    0    0.0000000000E+00    0.0000000000E+00    0.8000000000E+02    0.8000000000E+02    0.5109988851E-03    0    0
  -11   -1    0    0    0    0    0.0000000000E+00    0.0000000000E+00   -0.8000000000E+02    0.8000000000E+02    0.5109988851E-03    0    0
  -24    2    1    2    0    0   -0.7259372234E+01    0.2100142956E+01    0.3592266798E+01    0.7828078461E+02    0.7783230591E+02    0    0
   24    2    1    2    0    0    0.7259372234E+01   -0.2100142956E+01   -0.3592266798E+01    0.8171921539E+02    0.8128971100E+02    0    0
   15    2    3    3    0    0   -0.2920663643E+02   -0.1774585915E+02    0.2446758652E+02    0.4206856155E+02    0.1777029991E+01    0    0
  -16    1    3    3    0    0    0.2194726372E+02    0.1984600258E+02   -0.2087532043E+02    0.3621222305E+02    0.0000000000E+00    0    0
   16    1    4    4    0    0    0.2278779745E+01   -0.3532899094E+02    0.1996626854E+02    0.4064458466E+02    0.0000000000E+00    0    0
  -15    2    4    4    0    0    0.4980592251E+01    0.3322884750E+02   -0.2355853462E+02    0.4107463074E+02    0.1777029991E+01    0    0
   16    1    5    5    0    0   -0.2153299332E+02   -0.1340407562E+02    0.1902460098E+02    0.3170606422E+02    0.1726334885E-03    0    0
 -211    1    5    5    0    0   -0.7674793720E+01   -0.4342483044E+01    0.5443948746E+01    0.1036415386E+02    0.1395680606E+00    0    0
  -16    1    8    8    0    0    0.7158572078E+00    0.3201448441E+01   -0.2486264467E+01    0.4116216183E+01    0.1779465238E-03    0    0
   24    2    8    8    0    0    0.4264931202E+01    0.3002870941E+02   -0.2107319832E+02    0.3696002960E+02    0.1432174802E+01    0    0
  321    1   12   12    0    0    0.2059949636E+01    0.1186487770E+02   -0.8240482330E+01    0.1460027313E+02    0.4936671555E+00    0    0
  211    1   12   12    0    0    0.7841982841E+00    0.6280559540E+01   -0.4811761379E+01    0.7951913357E+01    0.1395679116E+00    0    0
 -211    1   12   12    0    0    0.1420783281E+01    0.1188327217E+02   -0.8020955086E+01    0.1440784454E+02    0.1395679861E+00    0    0
</event>
<event>
   18 9999    1    0.9119999695E+02    0.7565275169E-02    0.1185000000E+00
   11   -1    0    0    0    0    0.0000000000E+00    0.0000000000E+00    0.8000000000E+02    0.8000000000E+02    0.5109988851E-03    0    0
  -11   -1    0    0    0    0    0.0000000000E+00    0.0000000000E+00   -0.8000000000E+02    0.8000000000E+02    0.5109988851E-03    0    0
  -24    2    1    2    0    0    0.1028028107E+02    0.2383307219E+01   -0.3206939220E+01    0.8008758545E+02    0.7932447815E+02    0    0
   24    2    1    2    0    0   -0.1028028107E+02   -0.2383307219E+01    0.3206939220E+01    0.7991241455E+02    0.7914761353E+02    0    0
   15    2    3    3    0    0    0.3739344788E+02   -0.1732554245E+02    0.1245459843E+02    0.4308966446E+02    0.1777029991E+01    0    0
  -16    1    3    3    0    0   -0.2711316490E+02    0.1970885086E+02   -0.1566153812E+02    0.3699792480E+02    0.0000000000E+00    0    0
   16    1    4    4    0    0    0.2101138115E+02   -0.2212648582E+02    0.2272204590E+02    0.3804406738E+02    0.0000000000E+00    0    0
  -15    2    4    4    0    0   -0.3129166222E+02    0.1974317932E+02   -0.1951510811E+02    0.4186834717E+02    0.1777029991E+01    0    0
   16    1    5    5    0    0    0.1241967964E+02   -0.6388810158E+01    0.4444728374E+01    0.1465677166E+02    0.2283726499E-03    0    0
  -24    2    5    5    0    0    0.2497523880E+02   -0.1093741512E+02    0.8010360718E+01    0.2843458939E+02    0.9850714803E+00    0    0
 -211    1   10   10    0    0    0.2402905226E+01   -0.9995241165E+00    0.8384742141E+00    0.2737794876E+01    0.1395682096E+00    0    0
  111    1   10   10    0    0    0.1277148151E+02   -0.5987757206E+01    0.4286041260E+01    0.1474287415E+02    0.1349641681E+00    0    0
   22    1   10   10    0    0    0.9800852776E+01   -0.3950134039E+01    0.2885845661E+01    0.1095392132E+02    0.2114319796E-03    0    0
  -16    1    8    8    0    0   -0.1143660164E+02    0.6995317936E+01   -0.6863199234E+01    0.1506100464E+02    0.2796982299E-03    0    0
   24    2    8    8    0    0   -0.1985629272E+02    0.1274863815E+02   -0.1265267658E+02    0.2680899239E+02    0.1353397489E+01    0    0
  221    1   15   15    0    0   -0.5540983677E+01    0.3304593325E+01   -0.3437932253E+01    0.7330988407E+01    0.5487999916E+00    0    0
  211    1   15   15    0    0   -0.8967667580E+01    0.6051683903E+01   -0.5549642086E+01    0.1215976810E+02    0.1395678967E+00    0    0
  111    1   15   15    0    0   -0.5347642422E+01    0.3392361641E+01   -0.3665102959E+01    0.7318236828E+01    0.1349639595E+00    0    0
</event>
<event>
   18 9999    1    0.9119999695E+02    0.7565275169E-02    0.1185000000E+00
   11   -1    0    0    0    0    0.0000000000E+00    0.0000000000E+00    0.8000000000E+02    0.8000000000E+02    0.5109988851E-03    0    0
  -11   -1    0    0    0    0    0.0000000000E+00    0.0000000000E+00   -0.8000000000E+02    0.8000000000E+02    0.5109988851E-03    0    0
  -24    2    1    2    0    0   -0.1023515892E+02   -0.1150076008E+02    0.2655291319E+01    0.8075930023E+02    0.7923375702E+02    0    0
   24    2    1    2    0    0    0.1023515892E+02    0.1150076008E+02   -0.2655291319E+01    0.7924069977E+02    0.7768534088E+02    0    0
   15    2    3    3    0    0   -0.2766810608E+02    0.2666628647E+02    0.4674975395E+01    0.3875084686E+02    0.1777029991E+01    0    0
  -16    1    3    3    0    0    0.1743294716E+02   -0.3816704559E+02   -0.2019684315E+01    0.4200845337E+02    0.0000000000E+00    0    0
   16    1    4    4    0    0   -0.8817900658E+01    0.8281843185E+01    0.3491709518E+02    0.3695331955E+02    0.0000000000E+00    0    0
  -15    2    4    4    0    0    0.1905306053E+02    0.3218917131E+01   -0.3757238388E+02    0.4228738022E+02    0.1777029991E+01    0    0
   16    1    5    5    0    0   -0.3619264603E+01    0.3226309061E+01    0.9425446987E+00    0.4939284801E+01    0.4228639591E-03    0    0
  -24    2    5    5    0    0   -0.2404992867E+02    0.2344102669E+02    0.3732614756E+01    0.3381308746E+02    0.1229455233E+01    0    0
  111    1   10   10    0    0   -0.7106387615E+01    0.7271472454E+01    0.1290943861E+01    0.1024986839E+02    0.1349640787E+00    0    0
  111    1   10   10    0    0   -0.6539921761E+01    0.5935057640E+01    0.1055587530E+01    0.8895390511E+01    0.1349638402E+00    0    0
 -321    1   10   10    0    0   -0.1040361881E+02    0.1023449516E+02    0.1386083126E+01    0.1466782570E+02    0.4936669469E+00    0    0
  -16    1    8    8    0    0    0.3314690828E+01    0.3411827385E+00   -0.6396332741E+01    0.7212257385E+01    0.5042331177E-03    0    0
   24    2    8    8    0    0    0.1573912048E+02    0.2877861261E+01   -0.3117753410E+02    0.3507678986E+02    0.1529894590E+01    0    0
  321    1   15   15    0    0    0.4118382454E+01    0.6514945030E+00   -0.8833984375E+01    0.9781027794E+01    0.4936670363E+00    0    0
  211    1   15   15    0    0    0.3294060707E+01    0.8103831410E+00   -0.6125405788E+01    0.7003401279E+01    0.1395684630E+00    0    0
 -321    1   15   15    0    0    0.8326679230E+01    0.1415983915E+01   -0.1621814728E+02    0.1829236412E+02    0.4936670661E+00    0    0
</event>
<event>
   19 9999    1    0.9119999695E+02    0.7565275169E-02    0.1185000000E+00
   11   -1    0    0    0    0    0.0000000000E+00    0.0000000000E+00    0.8000000000E+02    0.8000000000E+02    0.5109988851E-03    0    0
  -11   -1    0    0    0    0    0.0000000000E+00    0.0000000000E+00   -0.8000000000E+02    0.8000000000E+02    0.5109988851E-03    0    0
  -24    2    1    2    0    0    0.7064378738E+01   -0.4286043644E+01    0.4548156738E+01    0.7976486969E+02    0.7920525360E+02    0    0
   24    2    1    2    0    0   -0.7065407276E+01    0.4287743568E+01   -0.4549751759E+01    0.8023258209E+02    0.7967598724E+02    0    0
   22    1    1    2    0    0    0.1028638449E-02   -0.1699702465E-02    0.1595344860E-02    0.2547981683E-02    0.0000000000E+00    0    0
   15    2    3    3    0    0   -0.3080153847E+02   -0.1104031849E+02    0.1991451263E+02    0.3834539032E+02    0.1777029991E+01    0    0
  -16    1    3    3    0    0    0.3786591721E+02    0.6754274845E+01   -0.1536635590E+02    0.4141947556E+02    0.0000000000E+00    0    0
   16    1    4    4    0    0   -0.4801593781E+01    0.3313639832E+02    0.2269411659E+02    0.4044872284E+02    0.0000000000E+00    0    0
  -15    2    4    4    0    0   -0.2263813734E+01   -0.2884865379E+02   -0.2724386787E+02    0.3978386307E+02    0.1777029991E+01    0    0
   16    1    6    6    0    0   -0.6141137600E+01   -0.2230888844E+01    0.3708286047E+01    0.7512777328E+01    0.4920811625E-03    0    0
  -24    2    6    6    0    0   -0.2466161346E+02   -0.8809864044E+01    0.1620701027E+02    0.3083412170E+02    0.1505694985E+01    0    0
  130    1   11   11    0    0   -0.1183581161E+02   -0.4441658974E+01    0.7586983204E+01    0.1475211239E+02    0.4977200031E+00    0    0
 -211    1   11   11    0    0   -0.8049735069E+01   -0.2838768005E+01    0.5472020149E+01    0.1013998699E+02    0.1395691633E+00    0    0
  310    1   11   11    0    0   -0.4776062012E+01   -0.1529435873E+01    0.3148004055E+01    0.5942019463E+01    0.4977200329E+00    0    0
  -16    1    9    9    0    0    0.1875543445E+00   -0.2935739279E+01   -0.2697972298E+01    0.3991590738E+01    0.3743848938E-03    0    0
   24    2    9    9    0    0   -0.2451457024E+01   -0.2591404915E+02   -0.2454696655E+02    0.3579383850E+02    0.1047700047E+01    0    0
  321    1   16   16    0    0   -0.1959821701E+01   -0.1837594223E+02   -0.1772323418E+02    0.2561001587E+02    0.4936671257E+00    0    0
  211    1   16   16    0    0   -0.2274082303E+00   -0.3159684420E+01   -0.2873737335E+01    0.4279388428E+01    0.1395679116E+00    0    0
 -211    1   16   16    0    0   -0.2642273009E+00   -0.4378425598E+01   -0.3949995756E+01    0.5904436588E+01    0.1395680308E+00    0    0
</event>
<event>
   21 9999    1    0.9119999695E+02    0.7565275169E-02    0.1185000000E+00
   11   -1    0    0    0    0    0.0000000000E+00    0.0000000000E+00    0.8000000000E+02    0.8000000000E+02    0.5109988851E-03    0    0
  -11   -1    0    0    0    0    0.0000000000E+00    0.0000000000E+00   -0.8000000000E+02    0.8000000000E+02    0.5109988851E-03    0    0
  -24    2    1    2    0    0    0.3229767990E+02   -0.6633926392E+01    0.2430967522E+02    0.8920298004E+02    0.7924053955E+02    0    0
   24    2    1    2    0    0   -0.3229766464E+02    0.6633910656E+01   -0.2430993843E+02    0.7079654694E+02    0.5774105835E+02    0    0
   22    1    1    2    0    0   -0.2797612098E-07   -0.4372742612E-08    0.3654853790E-03    0.3654853790E-03    0.0000000000E+00    0    0
   22    1    1    2    0    0   -0.1498603160E-04    0.1609336505E-04   -0.1023725490E-03    0.1047077676E-03    0.0000000000E+00    0    0
   15    2    3    3    0    0    0.1557104778E+02   -0.3217887878E+02    0.4098375702E+02    0.5441290283E+02    0.1777029991E+01    0    0
  -16    1    3    3    0    0    0.1672663307E+02    0.2554495049E+02   -0.1667408180E+02    0.3479008102E+02    0.0000000000E+00    0    0
   16    1    4    4    0    0   -0.3121355820E+02   -0.2000360298E+02   -0.4108134747E+01    0.3730023193E+02    0.0000000000E+00    0    0
  -15    2    4    4    0    0   -0.1084106684E+01    0.2663751411E+02   -0.2020180511E+02    0.3349631500E+02    0.1777029991E+01    0    0
   16    1    7    7    0    0    0.5585450172E+01   -0.1043980789E+02    0.1345345020E+02    0.1792155647E+02    0.3315057547E-03    0    0
  -24    2    7    7    0    0    0.9986209869E+01   -0.2174033546E+02    0.2753191948E+02    0.3649348831E+02    0.1183803916E+01    0    0
  221    1   12   12    0    0    0.5850952625E+01   -0.1278270912E+02    0.1659602547E+02    0.2175685120E+02    0.5488000512E+00    0    0
 -211    1   12   12    0    0    0.9763605595E+00   -0.1787189245E+01    0.2290845394E+01    0.3068350792E+01    0.1395680308E+00    0    0
  111    1   12   12    0    0    0.3158896685E+01   -0.7170437813E+01    0.8645048141E+01    0.1166828537E+02    0.1349640042E+00    0    0
  -16    1   10   10    0    0   -0.6567695737E+00    0.9188591957E+01   -0.7139768600E+01    0.1165495014E+02    0.3762459673E-03    0    0
   24    2   10   10    0    0   -0.4273798764E+00    0.1744997215E+02   -0.1306283283E+02    0.2184268570E+02    0.1334605575E+01    0    0
  111    1   17   17    0    0    0.2622155705E-02    0.2290631771E+01   -0.1625653744E+01    0.2812110662E+01    0.1349641085E+00    0    0
  111    1   17   17    0    0    0.1057267040E+00    0.6517194748E+01   -0.4883436203E+01    0.8145623207E+01    0.1349637359E+00    0    0
  111    1   17   17    0    0   -0.3753792346E+00    0.7166981697E+01   -0.5710889339E+01    0.9172732353E+01    0.1349642277E+00    0    0
  211    1   17   17    0    0   -0.1603494883E+00    0.1475165009E+01   -0.8428538442E+00    0.1712222457E+01    0.1395680308E+00    0    0
</event>
<event>
   21 9999    1    0.9119999695E+02    0.7565275169E-02    0.1185000000E+00
   11   -1    0    0    0    0    0.0000000000E+00    0.0000000000E+00    0.8000000000E+02    0.8000000000E+02    0.5109988851E-03    0    0
  -11   -1    0    0    0    0    0.0000000000E+00    0.0000000000E+00   -0.8000000000E+02    0.8000000000E+02    0.5109988851E-03    0    0
  -24    2    1    2    0    0    0.1173665285E+01    0.7437822342E+01    0.2533200264E+01    0.7705945587E+02    0.7664883423E+02    0    0
   24    2    1    2    0    0   -0.2783178568E+01   -0.7545848370E+01    0.1205143690E+01    0.7879810333E+02    0.7837731171E+02    0    0
   22    1    1    2    0    0    0.1609501600E+01    0.1079904810E+00   -0.3775299311E+01    0.4105489254E+01    0.0000000000E+00    0    0
   22    1    1    2    0    0    0.1167747359E-04    0.3561144695E-04    0.3695531189E-01    0.3695533052E-01    0.0000000000E+00    0    0
   15    2    3    3    0    0    0.3670398712E+02   -0.9005959511E+01    0.1290610731E+00    0.3783469772E+02    0.1777029991E+01    0    0
  -16    1    3    3    0    0   -0.3553031921E+02    0.1644378090E+02    0.2404139280E+01    0.3922475815E+02    0.0000000000E+00    0    0
   16    1    4    4    0    0    0.1462362003E+02    0.2287993431E+02    0.2458152008E+02    0.3662775803E+02    0.0000000000E+00    0    0
  -15    2    4    4    0    0   -0.1740679741E+02   -0.3042578316E+02   -0.2337637711E+02    0.4217034149E+02    0.1777029991E+01    0    0
   16    1    7    7    0    0    0.1709334135E+01   -0.3257984817E+00   -0.1798498034E+00    0.1749375224E+01    0.6103515625E-04    0    0
  -24    2    7    7    0    0    0.3499609756E+02   -0.8680515289E+01    0.3089159727E+00    0.3608681107E+02    0.1443765044E+01    0    0
 -211    1   12   12    0    0    0.6734176159E+01   -0.1779632807E+01   -0.1846740693E+00    0.6969203949E+01    0.1395680308E+00    0    0
 -211    1   12   12    0    0    0.1884111285E+01   -0.4762013853E+00   -0.2901258878E-02    0.1948366165E+01    0.1395679861E+00    0    0
  211    1   12   12    0    0    0.5619042397E+01   -0.1594229221E+01    0.2679556012E+00    0.5848630905E+01    0.1395679265E+00    0    0
  111    1   12   12    0    0    0.1297627449E+02   -0.3057645559E+01    0.1365268379E+00    0.1333303261E+02    0.1349639744E+00    0    0
  111    1   12   12    0    0    0.3334719181E+01   -0.7556719780E+00    0.8497594297E-01    0.3422985315E+01    0.1349639893E+00    0    0
  111    1   12   12    0    0    0.4447772503E+01   -0.1017134190E+01    0.7032900583E-02    0.4564592361E+01    0.1349639893E+00    0    0
  -16    1   10   10    0    0   -0.2842021227E+01   -0.5156024456E+01   -0.3420389652E+01    0.6808871746E+01    0.1220703125E-03    0    0
  -11    1   10   10    0    0   -0.8190190315E+01   -0.1451946449E+02   -0.1211241150E+02    0.2060593605E+02    0.4882812500E-03    0    0
   12    1   10   10    0    0   -0.6375271797E+01   -0.1075149155E+02   -0.7844496250E+01    0.1475719357E+02    0.1220703125E-03    0    0
</event>
<event>
   20 9999    1    0.9119999695E+02    0.7565275169E-02    0.1185000000E+00
   11   -1    0    0    0    0    0.0000000000E+00    0.0000000000E+00    0.8000000000E+02    0.8000000000E+02    0.5109988851E-03    0    0
  -11   -1    0    0    0    0    0.0000000000E+00    0.0000000000E+00   -0.8000000000E+02    0.8000000000E+02    0.5109988851E-03    0    0
  -24    2    1    2    0    0   -0.3591854095E+01    0.1167035198E+02    0.1925054932E+02    0.8358642578E+02    0.8041770935E+02    0    0
   24    2    1    2    0    0    0.3591854095E+01   -0.1167035198E+02   -0.1925054932E+02    0.7641357422E+02    0.7293389130E+02    0    0
   15    2    3    3    0    0   -0.3792954254E+02    0.9430650711E+01    0.2796260262E+02    0.4809004593E+02    0.1777029991E+01    0    0
  -16    1    3    3    0    0    0.3433768845E+02    0.2239701748E+01   -0.8712053299E+01    0.3549637985E+02    0.0000000000E+00    0    0
   16    1    4    4    0    0   -0.1705878067E+02    0.1227672195E+02    0.1789185143E+02    0.2760141754E+02    0.0000000000E+00    0    0
  -15    2    4    4    0    0    0.2065063477E+02   -0.2394707489E+02   -0.3714239883E+02    0.4881215668E+02    0.1777029991E+01    0    0
   16    1    5    5    0    0   -0.1732169342E+02    0.4429977894E+01    0.1283962154E+02    0.2201185226E+02    0.3526068176E-03    0    0
  -24    2    5    5    0    0   -0.2060934067E+02    0.5001043797E+01    0.1512408161E+02    0.2608008385E+02    0.1295200467E+01    0    0
  111    1   10   10    0    0   -0.1157185793E+01    0.4564028978E+00    0.9125500321E+00    0.1548659205E+01    0.1349640489E+00    0    0
  111    1   10   10    0    0   -0.5409691811E+01    0.9954555035E+00    0.3804179430E+01    0.6689222336E+01    0.1349638551E+00    0    0
 -321    1   10   10    0    0   -0.1404246426E+02    0.3549185753E+01    0.1040735245E+02    0.1784220314E+02    0.4936670363E+00    0    0
  -16    1    8    8    0    0    0.3353040457E+01   -0.4027018070E+01   -0.5488698483E+01    0.7588515282E+01    0.3860202269E-03    0    0
   24    2    8    8    0    0    0.1729840660E+02   -0.1992099762E+02   -0.3165516281E+02    0.4122556305E+02    0.1190244675E+01    0    0
  211    1   15   15    0    0    0.7786958218E+00   -0.8457752466E+00   -0.1443438053E+01    0.1850593328E+01    0.1395682096E+00    0    0
  211    1   15   15    0    0    0.1021493816E+02   -0.1181687260E+02   -0.1851042938E+02    0.2422062874E+02    0.1395681351E+00    0    0
 -211    1   15   15    0    0    0.1571862817E+01   -0.1804703355E+01   -0.3138763189E+01    0.3949559450E+01    0.1395680010E+00    0    0
  111    1   15   15    0    0    0.2182418108E+01   -0.2447839022E+01   -0.3828241110E+01    0.5042668819E+01    0.1349639893E+00    0    0
  111    1   15   15    0    0    0.2550492525E+01   -0.3005809069E+01   -0.4734294415E+01    0.6162115097E+01    0.1349641383E+00    0    0
</event>
<event>
   15 9999    1    0.9119999695E+02    0.7565275169E-02    0.1185000000E+00
   11   -1    0    0    0    0    0.0000000000E+00    0.0000000000E+00    0.8000000000E+02    0.8000000000E+02    0.5109988851E-03    0    0
  -11   -1    0    0    0    0    0.0000000000E+00    0.0000000000E+00   -0.8000000000E+02    0.8000000000E+02    0.5109988851E-03    0    0
  -24    2    1    2    0    0    0.1950127792E+02   -0.1352270508E+02    0.1610605621E+02    0.7455963898E+02    0.6882274628E+02    0    0
   24    2    1    2    0    0   -0.1950127792E+02    0.1352270508E+02   -0.1610605621E+02    0.8544036102E+02    0.8048284149E+02    0    0
   15    2    3    3    0    0   -0.7444460392E+01   -0.2382492638E+02   -0.1729967880E+02    0.3042176437E+02    0.1777029991E+01    0    0
  -16    1    3    3    0    0    0.2694573784E+02    0.1030222034E+02    0.3340573502E+02    0.4413787079E+02    0.0000000000E+00    0    0
   16    1    4    4    0    0    0.5626129508E+00   -0.2001007080E+02    0.2275095177E+02    0.3030388260E+02    0.0000000000E+00    0    0
  -15    2    4    4    0    0   -0.2006389046E+02    0.3353277588E+02   -0.3885700607E+02    0.5513648224E+02    0.1777029991E+01    0    0
   16    1    5    5    0    0   -0.7170579433E+00   -0.1738904595E+01   -0.1546575904E+01    0.2435130119E+01    0.2324149536E-03    0    0
  -24    2    5    5    0    0   -0.6727695465E+01   -0.2208695984E+02   -0.1575378418E+02    0.2798783302E+02    0.1428786159E+01    0    0
 -321    1   10   10    0    0   -0.2593085289E+01   -0.8602034569E+01   -0.6434136391E+01    0.1106168652E+02    0.4936670363E+00    0    0
 -211    1   10   10    0    0   -0.5249364972E+00   -0.1422477245E+01   -0.8540784121E+00    0.1745831966E+01    0.1395679265E+00    0    0
  321    1   10   10    0    0   -0.3609674215E+01   -0.1206244755E+02   -0.8465569496E+01    0.1518031502E+02    0.4936671257E+00    0    0
  -16    1    8    8    0    0   -0.1878998184E+02    0.3081985092E+02   -0.3537731171E+02    0.5054187012E+02    0.1495049946E-03    0    0
  211    1    8    8    0    0   -0.1274700165E+01    0.2714247465E+01   -0.3481226206E+01    0.4596783161E+01    0.1395680457E+00    0    0
</event>
<event>
   21 9999    1    0.9119999695E+02    0.7565275169E-02    0.1185000000E+00
   11   -1    0    0    0    0    0.0000000000E+00    0.0000000000E+00    0.8000000000E+02    0.8000000000E+02    0.5109988851E-03    0    0
  -11   -1    0    0    0    0    0.0000000000E+00    0.0000000000E+00   -0.8000000000E+02    0.8000000000E+02    0.5109988851E-03    0    0
  -24    2    1    2    0    0   -0.1028010941E+02   -0.4352711678E+01    0.6803651333E+01    0.8119442749E+02    0.8013500214E+02    0    0
   24    2    1    2    0    0    0.1028010941E+02    0.4352711678E+01   -0.6803651333E+01    0.7880557251E+02    0.7771358490E+02    0    0
   15    2    3    3    0    0    0.1169119072E+02   -0.3314330673E+02    0.2245158768E+02    0.4174199677E+02    0.1777029991E+01    0    0
  -16    1    3    3    0    0   -0.2197130013E+02    0.2879059410E+02   -0.1564793777E+02    0.3945243073E+02    0.0000000000E+00    0    0
   16    1    4    4    0    0    0.4000787354E+02    0.1225927448E+02   -0.1862676239E+02    0.4580257797E+02    0.0000000000E+00    0    0
  -15    2    4    4    0    0   -0.2972776604E+02   -0.7906562328E+01    0.1182311153E+02    0.3300299454E+02    0.1777029991E+01    0    0
   16    1    5    5    0    0    0.4820362478E-01   -0.1994012445E+00    0.8090911806E-01    0.2205237597E+00    0.3890243170E-04    0    0
  -24    2    5    5    0    0    0.1164344597E+02   -0.3294520569E+02    0.2237156105E+02    0.4152311325E+02    0.1650965571E+01    0    0
 -211    1   10   10    0    0    0.4005868912E+01   -0.1142103767E+02    0.7762715816E+01    0.1437937164E+02    0.1395678967E+00    0    0
 -211    1   10   10    0    0    0.3350053132E+00   -0.6762401462E+00    0.5394331813E+00    0.9380813837E+00    0.1395679265E+00    0    0
  211    1   10   10    0    0    0.2971953630E+01   -0.8508340836E+01    0.5887900352E+01    0.1076620770E+02    0.1395679712E+00    0    0
  111    1   10   10    0    0    0.2769677162E+01   -0.7738763809E+01    0.5305002689E+01    0.9783702850E+01    0.1349639744E+00    0    0
  111    1   10   10    0    0    0.9834093451E+00   -0.2616329193E+01    0.1635720968E+01    0.3241307020E+01    0.1349639744E+00    0    0
  111    1   10   10    0    0    0.5775315762E+00   -0.1984495401E+01    0.1240788221E+01    0.2414443016E+01    0.1349639744E+00    0    0
  -16    1    8    8    0    0   -0.3969650865E+00   -0.8966198564E-01    0.2953979671E+00    0.5028723478E+00    0.3315057547E-03    0    0
   24    2    8    8    0    0   -0.2933197212E+02   -0.7817211628E+01    0.1152817917E+02    0.3250141907E+02    0.1403603673E+01    0    0
  321    1   18   18    0    0   -0.1218122578E+02   -0.3455039263E+01    0.4531175137E+01    0.1345714760E+02    0.4936670661E+00    0    0
  211    1   18   18    0    0   -0.6851051331E+01   -0.1417239308E+01    0.2644386530E+01    0.7480490208E+01    0.1395679563E+00    0    0
 -211    1   18   18    0    0   -0.1029969501E+02   -0.2944933414E+01    0.4352617741E+01    0.1156378460E+02    0.1395679563E+00    0    0
</event>
<event>
   19 9999    1    0.9119999695E+02    0.7565275169E-02    0.1185000000E+00
   11   -1    0    0    0    0    0.0000000000E+00    0.0000000000E+00    0.8000000000E+02    0.8000000000E+02    0.5109988851E-03    0    0
  -11   -1    0    0    0    0    0.0000000000E+00    0.0000000000E+00   -0.8000000000E+02    0.8000000000E+02    0.5109988851E-03    0    0
  -24    2    1    2    0    0    0.1441801643E+02   -0.1305514431E+02    0.5807330608E+01    0.7671350098E+02    0.7397918701E+02    0    0
   24    2    1    2    0    0   -0.1441801643E+02    0.1305514431E+02   -0.5807330608E+01    0.8328649902E+02    0.8077499390E+02    0    0
   15    2    3    3    0    0   -0.2039260101E+02   -0.1759763908E+02    0.2492338753E+02    0.3674055099E+02    0.1777029991E+01    0    0
  -16    1    3    3    0    0    0.3481061554E+02    0.4542494774E+01   -0.1911605644E+02    0.3997295380E+02    0.0000000000E+00    0    0
   16    1    4    4    0    0    0.1430905247E+02   -0.9830337524E+01    0.2825537682E+02    0.3316249084E+02    0.0000000000E+00    0    0
  -15    2    4    4    0    0   -0.2872706985E+02    0.2288548279E+02   -0.3406270981E+02    0.5012400436E+02    0.1777029991E+01    0    0
   16    1    5    5    0    0   -0.5315917015E+01   -0.4907364368E+01    0.6567717552E+01    0.9771187782E+01    0.1121287423E-03    0    0
  -24    2    5    5    0    0   -0.1507748699E+02   -0.1269096756E+02    0.1835665131E+02    0.2697081184E+02    0.1437606335E+01    0    0
 -211    1   10   10    0    0   -0.1098387718E+01   -0.1076843858E+01    0.1169434786E+01    0.1937293410E+01    0.1395680606E+00    0    0
  130    1   10   10    0    0   -0.6763463497E+01   -0.5414532185E+01    0.8525529861E+01    0.1216527843E+02    0.4977200627E+00    0    0
  111    1   10   10    0    0   -0.7051754951E+01   -0.6087615013E+01    0.8510108948E+01    0.1261849880E+02    0.1349640042E+00    0    0
   22    1   10   10    0    0   -0.1639013439E+00   -0.1119956672E+00    0.1516037285E+00    0.2497806549E+00    0.0000000000E+00    0    0
  -16    1    8    8    0    0   -0.6752782822E+01    0.4902990818E+01   -0.7286878109E+01    0.1107871819E+02    0.4228639591E-03    0    0
20213    2    8    8    0    0   -0.2197541618E+02    0.1798339272E+02   -0.2677717018E+02    0.3904725647E+02    0.1161971569E+01    0    0
  211    1   16   16    0    0   -0.1009152699E+02    0.7685596943E+01   -0.1199051094E+02    0.1745563316E+02    0.1395677775E+00    0    0
  211    1   16   16    0    0   -0.5116009235E+01    0.4331690788E+01   -0.6018203259E+01    0.9009736061E+01    0.1395679116E+00    0    0
 -211    1   16   16    0    0   -0.6767879963E+01    0.5966104507E+01   -0.8768455505E+01    0.1258188725E+02    0.1395678818E+00    0    0
</event>
<event>
   24 9999    1    0.9119999695E+02    0.7565275169E-02    0.1185000000E+00
   11   -1    0    0    0    0    0.0000000000E+00    0.0000000000E+00    0.8000000000E+02    0.8000000000E+02    0.5109988851E-03    0    0
  -11   -1    0    0    0    0    0.0000000000E+00    0.0000000000E+00   -0.8000000000E+02    0.8000000000E+02    0.5109988851E-03    0    0
  -24    2    1    2    0    0   -0.3035106182E+01    0.5848849297E+01   -0.3688278675E+01    0.7960833740E+02    0.7924936676E+02    0    0
   24    2    1    2    0    0    0.3035106182E+01   -0.5848849297E+01    0.3688278675E+01    0.8039166260E+02    0.8003621674E+02    0    0
   15    2    3    3    0    0    0.3650296021E+02   -0.4091989040E+01   -0.1056892014E+02    0.3826317596E+02    0.1777029991E+01    0    0
  -16    1    3    3    0    0   -0.3953806686E+02    0.9940837860E+01    0.6880640984E+01    0.4134516144E+02    0.0000000000E+00    0    0
   16    1    4    4    0    0    0.1523214531E+02   -0.3364337921E+02    0.2380129433E+02    0.4393628311E+02    0.0000000000E+00    0    0
  -15    2    4    4    0    0   -0.1219703865E+02    0.2779453087E+02   -0.2011301613E+02    0.3645538330E+02    0.1777029991E+01    0    0
   16    1    5    5    0    0    0.2061434031E+01   -0.1474687457E+00   -0.4488321543E+00    0.2114877701E+01    0.0000000000E+00    0    0
  -24    2    5    5    0    0    0.3444296646E+02   -0.3944681406E+01   -0.1012050438E+02    0.3614980316E+02    0.1582817554E+01    0    0
 -211    1   10   10    0    0    0.8232996941E+01   -0.7893305421E+00   -0.2341563940E+01    0.8596958160E+01    0.1395679712E+00    0    0
 -211    1   10   10    0    0    0.3428160429E+01   -0.4700692296E+00   -0.9842983484E+00    0.3600218296E+01    0.1395680010E+00    0    0
  211    1   10   10    0    0    0.8310471535E+01   -0.9266987443E+00   -0.2519012928E+01    0.8734277725E+01    0.1395679712E+00    0    0
  111    1   10   10    0    0    0.8152633667E+01   -0.7722496390E+00   -0.2527351856E+01    0.8571319580E+01    0.1349640191E+00    0    0
  111    1   10   10    0    0    0.4004423618E+01   -0.5177434683E+00   -0.1261255622E+01    0.4232310295E+01    0.1349640042E+00    0    0
  111    1   10   10    0    0    0.2314279556E+01   -0.4685899019E+00   -0.4870217741E+00    0.2414719820E+01    0.1349639297E+00    0    0
  -16    1    8    8    0    0   -0.7489541769E+00    0.1746915221E+01   -0.1228416562E+01    0.2263106823E+01    0.1078959303E-04    0    0
   24    2    8    8    0    0   -0.1144856453E+02    0.2604870796E+02   -0.1888539124E+02    0.3419371033E+02    0.1716675162E+01    0    0
  211    1   18   18    0    0   -0.4355464935E+01    0.1025243378E+02   -0.7421689510E+01    0.1338594151E+02    0.1395680010E+00    0    0
  211    1   18   18    0    0   -0.1572411060E+01    0.3850066423E+01   -0.2874409437E+01    0.5057390213E+01    0.1395679861E+00    0    0
 -211    1   18   18    0    0   -0.2232022285E+01    0.5258520603E+01   -0.3659185171E+01    0.6785505295E+01    0.1395680010E+00    0    0
  111    1   18   18    0    0   -0.5770087242E+00    0.9832498431E+00   -0.7829681039E+00    0.1389594793E+01    0.1349640340E+00    0    0
  111    1   18   18    0    0   -0.6802816391E+00    0.1784164429E+01   -0.1426665664E+01    0.2387386799E+01    0.1349639595E+00    0    0
  111    1   18   18    0    0   -0.2031375408E+01    0.3920272827E+01   -0.2720472574E+01    0.5187891006E+01    0.1349640191E+00    0    0
</event>
<event>
   18 9999    1    0.9119999695E+02    0.7565275169E-02    0.1185000000E+00
   11   -1    0    0    0    0    0.0000000000E+00    0.0000000000E+00    0.8000000000E+02    0.8000000000E+02    0.5109988851E-03    0    0
  -11   -1    0    0    0    0    0.0000000000E+00    0.0000000000E+00   -0.8000000000E+02    0.8000000000E+02    0.5109988851E-03    0    0
  -24    2    1    2    0    0    0.4398451805E+01   -0.5377718449E+01   -0.1749217033E+02    0.7866994476E+02    0.7638532257E+02    0    0
   24    2    1    2    0    0   -0.4398451805E+01    0.5377718449E+01    0.1749217033E+02    0.8133005524E+02    0.7912228394E+02    0    0
   15    2    3    3    0    0    0.1616039467E+02    0.1541421890E+02    0.2271336174E+02    0.3190315247E+02    0.1777029991E+01    0    0
  -16    1    3    3    0    0   -0.1176194286E+02   -0.2079193687E+02   -0.4020553207E+02    0.4676679230E+02    0.0000000000E+00    0    0
   16    1    4    4    0    0   -0.5741827965E+01    0.4206301498E+02    0.1239381218E+02    0.4422524643E+02    0.0000000000E+00    0    0
  -15    2    4    4    0    0    0.1343376040E+01   -0.3668529892E+02    0.5098358631E+01    0.3710480881E+02    0.1777029991E+01    0    0
   16    1    5    5    0    0    0.5736192703E+01    0.5208156586E+01    0.7805419922E+01    0.1099788094E+02    0.3187955008E-03    0    0
  -24    2    5    5    0    0    0.1042483807E+02    0.1020666885E+02    0.1490883541E+02    0.2090652657E+02    0.1398628235E+01    0    0
  310    1   10   10    0    0    0.3393061161E+01    0.3298371315E+01    0.4733763218E+01    0.6711807251E+01    0.4977202117E+00    0    0
 -211    1   10   10    0    0    0.3968946218E+01    0.3799062252E+01    0.5357527256E+01    0.7675153732E+01    0.1395680159E+00    0    0
  310    1   10   10    0    0    0.3062829971E+01    0.3109235048E+01    0.4817543983E+01    0.6519564629E+01    0.4977200031E+00    0    0
  -16    1    8    8    0    0   -0.2548398077E+00   -0.5749281883E+01    0.5668007135E+00    0.5782771587E+01    0.2660460887E-03    0    0
   24    2    8    8    0    0    0.1598268747E+01   -0.3093745995E+02    0.4531758785E+01    0.3132349777E+02    0.9714792371E+00    0    0
  211    1   15   15    0    0    0.4251041412E+00   -0.8012322426E+01    0.1267213464E+01    0.8124243736E+01    0.1395681649E+00    0    0
  111    1   15   15    0    0    0.6063319445E+00   -0.1785746574E+02    0.2623869896E+01    0.1805989075E+02    0.1349643320E+00    0    0
   22    1   15   15    0    0    0.5668326020E+00   -0.5067668915E+01    0.6406750083E+00    0.5139360905E+01    0.2273508435E-03    0    0
</event>
<event>
   19 9999    1    0.9119999695E+02    0.7565275169E-02    0.1185000000E+00
   11   -1    0    0    0    0    0.0000000000E+00    0.0000000000E+00    0.8000000000E+02    0.8000000000E+02    0.5109988851E-03    0    0
  -11   -1    0    0    0    0    0.0000000000E+00    0.0000000000E+00   -0.8000000000E+02    0.8000000000E+02    0.5109988851E-03    0    0
  -24    2    1    2    0    0   -0.3830161333E+01   -0.7957073212E+01   -0.3358074665E+01    0.7908821869E+02    0.7852187347E+02    0    0
   24    2    1    2    0    0    0.3831342220E+01    0.7956969261E+01    0.3357218742E+01    0.8091031647E+02    0.8035680389E+02    0    0
   22    1    1    2    0    0   -0.1180904568E-02    0.1040498246E-03    0.8559076232E-03    0.1462169574E-02    0.0000000000E+00    0    0
   15    2    3    3    0    0   -0.3001887131E+02   -0.1696474314E+01    0.2561219788E+02    0.3953673172E+02    0.1777029991E+01    0    0
  -16    1    3    3    0    0    0.2618870926E+02   -0.6260599136E+01   -0.2897027206E+02    0.3955149078E+02    0.0000000000E+00    0    0
   16    1    4    4    0    0    0.2325101852E+02   -0.8337485313E+01   -0.3007371330E+02    0.3891724396E+02    0.0000000000E+00    0    0
  -15    2    4    4    0    0   -0.1941967773E+02    0.1629445457E+02    0.3343093109E+02    0.4199307251E+02    0.1777029991E+01    0    0
   16    1    6    6    0    0   -0.3622955322E+01   -0.3536855280E+00    0.2813440323E+01    0.4600689411E+01    0.1057159898E-03    0    0
  -24    2    6    6    0    0   -0.2639709663E+02   -0.1342855573E+01    0.2279976654E+02    0.3493759918E+02    0.1482044578E+01    0    0
 -211    1   11   11    0    0   -0.2794181347E+01   -0.3150116205E+00    0.2497332811E+01    0.3763353825E+01    0.1395680159E+00    0    0
 -211    1   11   11    0    0   -0.7513726354E+00    0.1219361275E-01    0.6288101077E+00    0.9897428751E+00    0.1395680159E+00    0    0
 -211    1   11   11    0    0   -0.3108806133E+01   -0.4833747447E-01    0.2622451067E+01    0.4069857597E+01    0.1395680159E+00    0    0
  211    1   11   11    0    0   -0.1729412079E+02   -0.7207736969E+00    0.1505622482E+02    0.2294156647E+02    0.1395678520E+00    0    0
  211    1   11   11    0    0   -0.2448617458E+01   -0.2709263861E+00    0.1994947672E+01    0.3173078060E+01    0.1395679712E+00    0    0
  -16    1    9    9    0    0   -0.2989082336E+01    0.1775129557E+01    0.4736128330E+01    0.5875083923E+01    0.1607613231E-03    0    0
  -11    1    9    9    0    0   -0.5158426762E+01    0.4617059708E+01    0.9505309105E+01    0.1175914574E+02    0.5033087800E-03    0    0
   12    1    9    9    0    0   -0.1127293205E+02    0.9902906418E+01    0.1919081116E+02    0.2436049652E+02    0.2114319796E-03    0    0
</event>
<event>
   25 9999    1    0.9119999695E+02    0.7565275169E-02    0.1185000000E+00
   11   -1    0    0    0    0    0.0000000000E+00    0.0000000000E+00    0.8000000000E+02    0.8000000000E+02    0.5109988851E-03    0    0
  -11   -1    0    0    0    0    0.0000000000E+00    0.0000000000E+00   -0.8000000000E+02    0.8000000000E+02    0.5109988851E-03    0    0
  -24    2    1    2    0    0   -0.2804363489E+01   -0.1071528196E+01    0.7110085487E+00    0.8095680237E+02    0.8089799500E+02    0    0
   24    2    1    2    0    0    0.2810080290E+01    0.1074071288E+01   -0.6643463373E+00    0.7897975922E+02    0.7891964722E+02    0    0
   22    1    1    2    0    0   -0.3166863735E-05   -0.1083714949E-06   -0.5374861881E-01    0.5374861881E-01    0.0000000000E+00    0    0
   22    1    1    2    0    0   -0.5592549685E-02   -0.2623763401E-02    0.7215260062E-02    0.9498459287E-02    0.0000000000E+00    0    0
   22    1    1    2    0    0   -0.1210854534E-03    0.8070097829E-04   -0.1288048370E-03    0.1943322422E-03    0.0000000000E+00    0    0
   15    2    3    3    0    0   -0.9490919113E+01   -0.3901905823E+02    0.9786639214E+01    0.4137028503E+02    0.1777029991E+01    0    0
  -16    1    3    3    0    0    0.6686555862E+01    0.3794752884E+02   -0.9075630188E+01    0.3958651352E+02    0.0000000000E+00    0    0
   16    1    4    4    0    0    0.2234278297E+02    0.2035185242E+02    0.2414732361E+02    0.3868450546E+02    0.0000000000E+00    0    0
  -15    2    4    4    0    0   -0.1365921116E+02   -0.2069073486E+02   -0.2329652596E+02    0.3406709290E+02    0.1777029991E+01    0    0
   22    1    4    4    0    0   -0.5873491764E+01    0.1412955165E+01   -0.1515145183E+01    0.6228162766E+01    0.0000000000E+00    0    0
   16    1    8    8    0    0   -0.8606622219E+00   -0.4499180794E+01    0.1134716749E+01    0.4719210625E+01    0.1945121585E-04    0    0
  -24    2    8    8    0    0   -0.8630630493E+01   -0.3452141190E+02    0.8652306557E+01    0.3665270233E+02    0.1530532718E+01    0    0
 -211    1   14   14    0    0   -0.5756832957E+00   -0.2407664061E+01    0.4381563365E+00    0.2517879725E+01    0.1395678967E+00    0    0
 -211    1   14   14    0    0   -0.1436227083E+01   -0.5581171513E+01    0.1598371983E+01    0.5982181549E+01    0.1395679116E+00    0    0
 -211    1   14   14    0    0   -0.1494236827E+01   -0.5841600418E+01    0.1659873486E+01    0.6255533218E+01    0.1395679414E+00    0    0
  211    1   14   14    0    0   -0.2172485113E+01   -0.8281968117E+01    0.2145924091E+01    0.8828088760E+01    0.1395679414E+00    0    0
  211    1   14   14    0    0   -0.4972147048E+00   -0.2411130905E+01    0.6304756999E+00    0.2545143127E+01    0.1395679712E+00    0    0
  111    1   14   14    0    0   -0.2454782963E+01   -0.9997874260E+01    0.2179504871E+01    0.1052387333E+02    0.1349638700E+00    0    0
  -16    1   11   11    0    0   -0.3045676470E+01   -0.4974879742E+01   -0.5963275909E+01    0.8341837883E+01    0.5320921773E-03    0    0
20213    2   11   11    0    0   -0.1061408138E+02   -0.1571668816E+02   -0.1733418846E+02    0.2572662544E+02    0.1308438778E+01    0    0
  211    1   22   22    0    0   -0.3050443172E+01   -0.4335123539E+01   -0.4253700256E+01    0.6797937870E+01    0.1395678520E+00    0    0
  211    1   22   22    0    0   -0.4083031178E+01   -0.5623110294E+01   -0.6778295040E+01    0.9708516121E+01    0.1395681202E+00    0    0
 -211    1   22   22    0    0   -0.3480605841E+01   -0.5758452415E+01   -0.6302190304E+01    0.9220168114E+01    0.1395679414E+00    0    0
</event>
<event>
   18 9999    1    0.9119999695E+02    0.7565275169E-02    0.1185000000E+00
   11   -1    0    0    0    0    0.0000000000E+00    0.0000000000E+00    0.8000000000E+02    0.8000000000E+02    0.5109988851E-03    0    0
  -11   -1    0    0    0    0    0.0000000000E+00    0.0000000000E+00   -0.8000000000E+02    0.8000000000E+02    0.5109988851E-03    0    0
  -24    2    1    2    0    0    0.2604651070E+02   -0.8163945198E+01   -0.2708283901E+01    0.8206147766E+02    0.7734133148E+02    0    0
   24    2    1    2    0    0   -0.2604651070E+02    0.8163958549E+01    0.3030949593E+01    0.7761585236E+02    0.7259451294E+02    0    0
   22    1    1    2    0    0    0.1586643918E-06   -0.1320331558E-04   -0.3226658106E+00    0.3226658106E+00    0.0000000000E+00    0    0
   15    2    3    3    0    0    0.9692524910E+01    0.3472311783E+02   -0.2254021764E+00    0.3609499359E+02    0.1777029991E+01    0    0
  -16    1    3    3    0    0    0.1635398674E+02   -0.4288706207E+02   -0.2482881546E+01    0.4596648407E+02    0.0000000000E+00    0    0
   16    1    4    4    0    0    0.4548609734E+01    0.3585939026E+02    0.3410451889E+01    0.3630725479E+02    0.0000000000E+00    0    0
  -15    2    4    4    0    0   -0.3059512138E+02   -0.2769543076E+02   -0.3795023859E+00    0.4130859756E+02    0.1777029991E+01    0    0
   16    1    6    6    0    0    0.7609285116E+00    0.2589769125E+01    0.2681088448E+00    0.2712526321E+01    0.4139605735E-03    0    0
  -24    2    6    6    0    0    0.8931977272E+01    0.3213471603E+02   -0.4935199022E+00    0.3338388824E+02    0.1349177957E+01    0    0
 -321    1   11   11    0    0    0.2103853941E+01    0.7058715820E+01   -0.1263364702E+00    0.7383179665E+01    0.4936670363E+00    0    0
 -211    1   11   11    0    0    0.1130954266E+01    0.4787120819E+01   -0.2288615555E+00    0.4926198959E+01    0.1395681798E+00    0    0
  211    1   11   11    0    0    0.5697169781E+01    0.2028887939E+02   -0.1383218467E+00    0.2107451057E+02    0.1395678520E+00    0    0
  -16    1    9    9    0    0   -0.7522845268E+00   -0.1032928824E+01    0.3394899890E-01    0.1278290510E+01    0.1971870079E-03    0    0
  323    2    9    9    0    0   -0.2984403992E+02   -0.2666359138E+02   -0.4134663045E+00    0.4003193283E+02    0.8779194951E+00    0    0
  211    1   16   16    0    0   -0.1898645782E+02   -0.1689164543E+02   -0.3693392575E+00    0.2541592216E+02    0.1395676881E+00    0    0
  310    1   16   16    0    0   -0.1085758209E+02   -0.9771947861E+01   -0.4412702844E-01    0.1461600876E+02    0.4977200329E+00    0    0
</event>
<event>
   20 9999    1    0.9119999695E+02    0.7565275169E-02    0.1185000000E+00
   11   -1    0    0    0    0    0.0000000000E+00    0.0000000000E+00    0.8000000000E+02    0.8000000000E+02    0.5109988851E-03    0    0
  -11   -1    0    0    0    0    0.0000000000E+00    0.0000000000E+00   -0.8000000000E+02    0.8000000000E+02    0.5109988851E-03    0    0
  -24    2    1    2    0    0    0.8209031105E+01   -0.3311203003E+01   -0.9005531669E+00    0.8274726105E+02    0.8226752472E+02    0    0
   24    2    1    2    0    0   -0.8209031105E+01    0.3311203003E+01    0.9013791680E+00    0.7725191498E+02    0.7673782349E+02    0    0
   22    1    1    2    0    0   -0.2133347010E-07    0.1051365395E-07   -0.8259824244E-03    0.8259824244E-03    0.0000000000E+00    0    0
   15    2    3    3    0    0    0.7565055847E+01    0.1733847380E+01    0.4037852859E+02    0.4115604019E+02    0.1777029991E+01    0    0
  -16    1    3    3    0    0    0.6439750195E+00   -0.5045050621E+01   -0.4127907944E+02    0.4159122086E+02    0.0000000000E+00    0    0
   16    1    4    4    0    0    0.5023090839E+01    0.2850065994E+02    0.2627387810E+02    0.3908753967E+02    0.0000000000E+00    0    0
  -15    2    4    4    0    0   -0.1323212147E+02   -0.2518945694E+02   -0.2537249947E+02    0.3816437149E+02    0.1777029991E+01    0    0
   16    1    6    6    0    0    0.1250910997E+01    0.5630338192E+00    0.7660099030E+01    0.7781960011E+01    0.1795746211E-03    0    0
  -24    2    6    6    0    0    0.6314442635E+01    0.1170881867E+01    0.3272002029E+02    0.3337570190E+02    0.1447278976E+01    0    0
  130    1   11   11    0    0    0.1734674454E+01    0.3565070331E+00    0.8280938148E+01    0.8482797623E+01    0.4977200031E+00    0    0
 -211    1   11   11    0    0    0.2488184452E+01    0.2247712016E+00    0.1295285606E+02    0.1319232941E+02    0.1395686269E+00    0    0
  130    1   11   11    0    0    0.2091583014E+01    0.5896034837E+00    0.1148622036E+02    0.1170057011E+02    0.4977200627E+00    0    0
  -16    1    9    9    0    0   -0.2563000679E+01   -0.4932455063E+01   -0.5638668537E+01    0.7917870045E+01    0.4882812500E-03    0    0
   24    2    9    9    0    0   -0.1066964149E+02   -0.2025799179E+02   -0.1973482704E+02    0.3024800301E+02    0.1118364334E+01    0    0
  111    1   16   16    0    0   -0.1697004914E+01   -0.3654500246E+01   -0.3725795746E+01    0.5489532471E+01    0.1349640936E+00    0    0
  111    1   16   16    0    0   -0.2298002005E+01   -0.4085607052E+01   -0.4072573185E+01    0.6211044312E+01    0.1349639744E+00    0    0
  111    1   16   16    0    0   -0.3199516535E+01   -0.6043416977E+01   -0.6047878742E+01    0.9129887581E+01    0.1349640638E+00    0    0
  211    1   16   16    0    0   -0.3475118637E+01   -0.6474469662E+01   -0.5888581276E+01    0.9417540550E+01    0.1395680159E+00    0    0
</event>
<event>
   22 9999    1    0.9119999695E+02    0.7565275169E-02    0.1185000000E+00
   11   -1    0    0    0    0    0.0000000000E+00    0.0000000000E+00    0.8000000000E+02    0.8000000000E+02    0.5109988851E-03    0    0
  -11   -1    0    0    0    0    0.0000000000E+00    0.0000000000E+00   -0.8000000000E+02    0.8000000000E+02    0.5109988851E-03    0    0
  -24    2    1    2    0    0   -0.1164043140E+02    0.3379831016E+00    0.2074788475E+02    0.7526245880E+02    0.7140271759E+02    0    0
   24    2    1    2    0    0    0.1164008045E+02   -0.3381800652E+00   -0.2155504227E+02    0.8392164612E+02    0.8026591492E+02    0    0
   22    1    1    2    0    0    0.4104787877E-05   -0.3061958341E-04    0.8115168810E+00    0.8115168810E+00    0.0000000000E+00    0    0
   22    1    1    2    0    0    0.3468193172E-03    0.2275672596E-03   -0.4360683728E-02    0.4380369093E-02    0.0000000000E+00    0    0
   15    2    3    3    0    0    0.1234460449E+02    0.2831908035E+02   -0.3508749485E+01    0.3114207268E+02    0.1777029991E+01    0    0
  -16    1    3    3    0    0   -0.2398503685E+02   -0.2798109627E+02    0.2425663567E+02    0.4412038040E+02    0.0000000000E+00    0    0
   16    1    4    4    0    0    0.4508576202E+02   -0.7028518200E+01   -0.1152683926E+02    0.4706372070E+02    0.0000000000E+00    0    0
  -15    2    4    4    0    0   -0.4282746315E+01    0.1354075074E+00    0.1418140888E+01    0.4850697041E+01    0.1777029991E+01    0    0
   22    1    4    4    0    0   -0.2916293716E+02    0.6554930687E+01   -0.1144634438E+02    0.3200722885E+02    0.0000000000E+00    0    0
   16    1    7    7    0    0    0.2703515053E+01    0.5893570423E+01   -0.8273729086E+00    0.6536643982E+01    0.9155273438E-04    0    0
  -24    2    7    7    0    0    0.9641574860E+01    0.2242662430E+02   -0.2681514740E+01    0.2460665512E+02    0.1543858647E+01    0    0
 -211    1   13   13    0    0    0.1637582421E+01    0.3969840527E+01   -0.3154072165E+00    0.4308163166E+01    0.1395679861E+00    0    0
 -211    1   13   13    0    0    0.5572362542E+00    0.1037161112E+01    0.4209151026E-02    0.1185627460E+01    0.1395680159E+00    0    0
 -211    1   13   13    0    0    0.4811164141E+00    0.1251532435E+01   -0.2748038471E+00    0.1375791669E+01    0.1395680308E+00    0    0
  211    1   13   13    0    0    0.4992791653E+01    0.1196056461E+02   -0.1421690583E+01    0.1303931522E+02    0.1395679712E+00    0    0
  211    1   13   13    0    0    0.1972848415E+01    0.4207525253E+01   -0.6738222241E+00    0.4697756290E+01    0.1395679861E+00    0    0
  -16    1   10   10    0    0   -0.1797793746E+01   -0.2783571482E+00    0.1021084905E+01    0.2086186886E+01    0.1220703125E-03    0    0
  323    2   10   10    0    0   -0.2485123873E+01    0.4137682617E+00    0.3971197009E+00    0.2764710426E+01    0.1067167521E+01    0    0
  111    1   20   20    0    0   -0.1571334839E+01    0.3515940905E+00    0.5629661679E+00    0.1711101413E+01    0.1349641085E+00    0    0
  321    1   20   20    0    0   -0.9137887359E+00    0.6217422709E-01   -0.1658476591E+00    0.1053607821E+01    0.4936668575E+00    0    0
</event>
<event>
   20 9999    1    0.9119999695E+02    0.7565275169E-02    0.1185000000E+00
   11   -1    0    0    0    0    0.0000000000E+00    0.0000000000E+00    0.8000000000E+02    0.8000000000E+02    0.5109988851E-03    0    0
  -11   -1    0    0    0    0    0.0000000000E+00    0.0000000000E+00   -0.8000000000E+02    0.8000000000E+02    0.5109988851E-03    0    0
  -24    2    1    2    0    0   -0.2638076544E+01    0.3791183710E+01    0.3917071342E+01    0.7969406891E+02    0.7946363068E+02    0    0
   24    2    1    2    0    0    0.2638080597E+01   -0.3789579630E+01   -0.3919373035E+01    0.8015312958E+02    0.7992398071E+02    0    0
   22    1    1    2    0    0   -0.9251796291E-04   -0.3867298801E-04   -0.7511697710E-01    0.7511704415E-01    0.0000000000E+00    0    0
   22    1    1    2    0    0   -0.8446699940E-04   -0.4229444676E-04    0.6457781047E-01    0.6457787752E-01    0.0000000000E+00    0    0
   22    1    1    2    0    0    0.1727104536E-03   -0.1522088191E-02    0.1292598527E-01    0.1301643811E-01    0.0000000000E+00    0    0
   22    1    1    2    0    0    0.1727867414E-06   -0.1044236456E-05   -0.8528160106E-04    0.8528817125E-04    0.0000000000E+00    0    0
   15    2    3    3    0    0   -0.1465369701E+02   -0.9415891647E+01    0.3765292740E+02    0.4152458191E+02    0.1777029991E+01    0    0
  -16    1    3    3    0    0    0.1201562023E+02    0.1320707512E+02   -0.3373585892E+02    0.3816949081E+02    0.0000000000E+00    0    0
   16    1    4    4    0    0   -0.3514142990E+02   -0.2220260143E+01    0.1447018909E+02    0.3806883240E+02    0.0000000000E+00    0    0
  -15    2    4    4    0    0    0.3777951050E+02   -0.1569319367E+01   -0.1838956261E+02    0.4208429718E+02    0.1777029991E+01    0    0
   16    1    9    9    0    0   -0.6894288063E+00   -0.4913349450E+00    0.1101323724E+01    0.1389113426E+01    0.2283726499E-03    0    0
   11    1    9    9    0    0   -0.1103576183E+02   -0.6846829414E+01    0.2873230553E+02    0.3153113556E+02    0.6042172317E-03    0    0
  -12    1    9    9    0    0   -0.2929083586E+01   -0.2078098297E+01    0.7820782185E+01    0.8605966568E+01    0.2704133476E-04    0    0
  -16    1   12   12    0    0    0.1720419884E+01   -0.2667823434E+00   -0.8334227800E+00    0.1930184245E+01    0.1743451285E-03    0    0
   24    2   12   12    0    0    0.3606058121E+02   -0.1302598834E+01   -0.1755686378E+02    0.4015576935E+02    0.1476582646E+01    0    0
  211    1   17   17    0    0    0.9454768181E+01   -0.4668090641E+00   -0.4777465820E+01    0.1060444260E+02    0.1395679861E+00    0    0
  310    1   17   17    0    0    0.2147741508E+02   -0.9705212712E+00   -0.1060389519E+02    0.2397731400E+02    0.4977200031E+00    0    0
  111    1   17   17    0    0    0.5128396988E+01    0.1347315311E+00   -0.2175502777E+01    0.5574014664E+01    0.1349641234E+00    0    0
</event>
<event>
   19 9999    1    0.9119999695E+02    0.7565275169E-02    0.1185000000E+00
   11   -1    0    0    0    0    0.0000000000E+00    0.0000000000E+00    0.8000000000E+02    0.8000000000E+02    0.5109988851E-03    0    0
  -11   -1    0    0    0    0    0.0000000000E+00    0.0000000000E+00   -0.8000000000E+02    0.8000000000E+02    0.5109988851E-03    0    0
  -24    2    1    2    0    0   -0.2486704826E+01    0.8141652346E+00    0.1432330418E+02    0.8208832550E+02    0.8078668976E+02    0    0
   24    2    1    2    0    0    0.2486251354E+01   -0.8150374889E+00   -0.1453489494E+02    0.7770008087E+02    0.7628364563E+02    0    0
   22    1    1    2    0    0    0.4531942250E-03    0.8723016363E-03    0.2115905583E+00    0.2115928382E+00    0.0000000000E+00    0    0
   15    2    3    3    0    0   -0.1898377609E+02    0.2994158173E+02   -0.1407970238E+02    0.3818740463E+02    0.1777029991E+01    0    0
  -16    1    3    3    0    0    0.1649707031E+02   -0.2912741661E+02    0.2840300560E+02    0.4390091705E+02    0.0000000000E+00    0    0
   16    1    4    4    0    0    0.2332881212E+01    0.3635110092E+02    0.3033866405E+01    0.3655200577E+02    0.0000000000E+00    0    0
  -15    2    4    4    0    0    0.1533703506E+00   -0.3716613770E+02   -0.1756876183E+02    0.4114807892E+02    0.1777029991E+01    0    0
   16    1    6    6    0    0   -0.9305387497E+01    0.1524696159E+02   -0.6201292992E+01    0.1890809631E+02    0.0000000000E+00    0    0
 -211    1    6    6    0    0   -0.9679135323E+01    0.1469580078E+02   -0.7878963947E+01    0.1928081322E+02    0.1395679563E+00    0    0
  -16    1    9    9    0    0    0.2638806701E+00   -0.8474436760E+01   -0.4162757874E+01    0.9445330620E+01    0.7475249731E-04    0    0
   24    2    9    9    0    0   -0.1105042845E+00   -0.2869316292E+02   -0.1340669537E+02    0.3170436859E+02    0.1455242395E+01    0    0
  211    1   13   13    0    0    0.9010058641E-01   -0.8382777214E+01   -0.3701641798E+01    0.9165189743E+01    0.1395680010E+00    0    0
  211    1   13   13    0    0    0.9164294600E-01   -0.2140301943E+01   -0.9911251664E+00    0.2364550591E+01    0.1395680010E+00    0    0
 -211    1   13   13    0    0    0.1681089848E+00   -0.5109488487E+01   -0.2547988892E+01    0.5713743210E+01    0.1395680159E+00    0    0
  111    1   13   13    0    0   -0.2343850285E+00   -0.4375096321E+01   -0.1917123556E+01    0.4784347534E+01    0.1349639595E+00    0    0
  111    1   13   13    0    0   -0.1240622923E+00   -0.3026471853E+01   -0.1518446445E+01    0.3390990734E+01    0.1349639893E+00    0    0
  111    1   13   13    0    0   -0.1019094959E+00   -0.5659027100E+01   -0.2730368853E+01    0.6285546780E+01    0.1349640042E+00    0    0
</event>
<event>
   21 9999    1    0.9119999695E+02    0.7565275169E-02    0.1185000000E+00
   11   -1    0    0    0    0    0.0000000000E+00    0.0000000000E+00    0.8000000000E+02    0.8000000000E+02    0.5109988851E-03    0    0
  -11   -1    0    0    0    0    0.0000000000E+00    0.0000000000E+00   -0.8000000000E+02    0.8000000000E+02    0.5109988851E-03    0    0
  -24    2    1    2    0    0   -0.1259566498E+02   -0.8410498619E+01    0.4685869217E+01    0.7855236816E+02    0.7693587494E+02    0    0
   24    2    1    2    0    0    0.1259566498E+02    0.8410498619E+01   -0.4685869217E+01    0.8144763184E+02    0.7988975525E+02    0    0
   15    2    3    3    0    0   -0.2305903244E+02   -0.1303478622E+02    0.3627724457E+02    0.4495354080E+02    0.1777029991E+01    0    0
  -16    1    3    3    0    0    0.1046336842E+02    0.4624287128E+01   -0.3159137344E+02    0.3359882355E+02    0.0000000000E+00    0    0
   16    1    4    4    0    0   -0.2131887245E+02    0.3300691986E+02   -0.3841108978E+00    0.3929502106E+02    0.0000000000E+00    0    0
  -15    2    4    4    0    0    0.3391453552E+02   -0.2459642220E+02   -0.4301758289E+01    0.4215261459E+02    0.1777029991E+01    0    0
   16    1    5    5    0    0   -0.6252120018E+01   -0.3362085819E+01    0.9558805466E+01    0.1190644360E+02    0.8631674427E-04    0    0
  -24    2    5    5    0    0   -0.1680782127E+02   -0.9673213005E+01    0.2671986580E+02    0.3304886627E+02    0.1484091997E+01    0    0
 -211    1   10   10    0    0   -0.1568871617E+01   -0.8780879974E+00    0.2485501289E+01    0.3070764065E+01    0.1395680010E+00    0    0
 -211    1   10   10    0    0   -0.2641722202E+01   -0.1295105338E+01    0.4367353439E+01    0.5267755508E+01    0.1395680308E+00    0    0
  211    1   10   10    0    0   -0.6670066833E+01   -0.4073904037E+01    0.1033246613E+02    0.1295630455E+02    0.1395678818E+00    0    0
  111    1   10   10    0    0   -0.8485957384E+00   -0.5056823492E+00    0.1449617386E+01    0.1759384990E+01    0.1349639744E+00    0    0
  111    1   10   10    0    0   -0.9264842272E+00   -0.4503062367E+00    0.1295097589E+01    0.1660313725E+01    0.1349639744E+00    0    0
  111    1   10   10    0    0   -0.4152080059E+01   -0.2470127344E+01    0.6789829254E+01    0.8334343910E+01    0.1349639893E+00    0    0
  -16    1    8    8    0    0    0.7581710815E+01   -0.5310833454E+01   -0.1018612742E+01    0.9312618256E+01    0.5774196470E-03    0    0
   24    2    8    8    0    0    0.2633415985E+02   -0.1928655815E+02   -0.3283314943E+01    0.3284165192E+02    0.1527981877E+01    0    0
  221    1   18   18    0    0    0.9155072212E+01   -0.6887572765E+01   -0.1496737242E+01    0.1156699657E+02    0.5487997532E+00    0    0
  211    1   18   18    0    0    0.1439544392E+02   -0.1067805290E+02   -0.1532799602E+01    0.1798940277E+02    0.1395676136E+00    0    0
  111    1   18   18    0    0    0.2783645630E+01   -0.1720932007E+01   -0.2537783086E+00    0.3285256147E+01    0.1349637508E+00    0    0
</event>
<event>
   17 9999    1    0.9119999695E+02    0.7565275169E-02    0.1185000000E+00
   11   -1    0    0    0    0    0.0000000000E+00    0.0000000000E+00    0.8000000000E+02    0.8000000000E+02    0.5109988851E-03    0    0
  -11   -1    0    0    0    0    0.0000000000E+00    0.0000000000E+00   -0.8000000000E+02    0.8000000000E+02    0.5109988851E-03    0    0
  -24    2    1    2    0    0   -0.4468739510E+01    0.1380881786E+02   -0.7703640938E+01    0.8719480896E+02    0.8563256073E+02    0    0
   24    2    1    2    0    0    0.4468774796E+01   -0.1380903339E+02    0.8093760490E+01    0.7241506958E+02    0.7048244476E+02    0    0
   22    1    1    2    0    0   -0.3552316775E-04    0.2151970984E-03   -0.3901199400E+00    0.3901199996E+00    0.0000000000E+00    0    0
   15    2    3    3    0    0    0.3323914337E+02    0.3088917542E+02   -0.5464046001E+01    0.4573833847E+02    0.1777029991E+01    0    0
  -16    1    3    3    0    0   -0.3770788574E+02   -0.1708035660E+02   -0.2239594460E+01    0.4145647049E+02    0.0000000000E+00    0    0
   16    1    4    4    0    0   -0.8086215019E+01   -0.3940336227E+02    0.1516730881E+02    0.4298905945E+02    0.0000000000E+00    0    0
  -15    2    4    4    0    0    0.1255498981E+02    0.2559432983E+02   -0.7073548317E+01    0.2942601585E+02    0.1777029991E+01    0    0
   16    1    6    6    0    0    0.1144520569E+02    0.1027794361E+02   -0.1850787640E+01    0.1549368477E+02    0.6336704828E-03    0    0
  -24    2    6    6    0    0    0.2179524612E+02    0.2061244583E+02   -0.3613473415E+01    0.3024645042E+02    0.1372926235E+01    0    0
 -211    1   11   11    0    0    0.1035263157E+02    0.1004486561E+02   -0.1368225813E+01    0.1449026680E+02    0.1395680606E+00    0    0
  111    1   11   11    0    0    0.4837675989E+00    0.5475289822E+00   -0.3899793327E-01    0.7440128922E+00    0.1349639148E+00    0    0
   22    1   11   11    0    0    0.1095884323E+02    0.1002004910E+02   -0.2206248999E+01    0.1501216698E+02    0.1220703125E-03    0    0
  -16    1    9    9    0    0    0.5515587330E+01    0.1223250103E+02   -0.3827843666E+01    0.1395378685E+02    0.0000000000E+00    0    0
  -13    1    9    9    0    0    0.6524528027E+01    0.1235834694E+02   -0.3232693195E+01    0.1434432507E+02    0.1056588218E+00    0    0
   14    1    9    9    0    0    0.5153694153E+00    0.1004489303E+01   -0.1329012215E-01    0.1129062057E+01    0.8631674427E-04    0    0
</event>
<event>
   19 9999    1    0.9119999695E+02    0.7565275169E-02    0.1185000000E+00
   11   -1    0    0    0    0    0.0000000000E+00    0.0000000000E+00    0.8000000000E+02    0.8000000000E+02    0.5109988851E-03    0    0
  -11   -1    0    0    0    0    0.0000000000E+00    0.0000000000E+00   -0.8000000000E+02    0.8000000000E+02    0.5109988851E-03    0    0
  -24    2    1    2    0    0   -0.5948256969E+01   -0.9649280548E+01   -0.1135447979E+02    0.7751567078E+02    0.7583708954E+02    0    0
   24    2    1    2    0    0    0.5947918415E+01    0.9649288177E+01    0.1122944736E+02    0.8235929871E+02    0.8079892731E+02    0    0
   22    1    1    2    0    0    0.3389233607E-03   -0.7557346180E-05    0.1250325292E+00    0.1250329912E+00    0.0000000000E+00    0    0
   15    2    3    3    0    0    0.9435378909E+00   -0.2516125870E+02    0.2615237617E+02    0.3634671783E+02    0.1777029991E+01    0    0
  -16    1    3    3    0    0   -0.6891795158E+01    0.1551197910E+02   -0.3750685501E+02    0.4116895294E+02    0.0000000000E+00    0    0
   16    1    4    4    0    0    0.3526742935E+02    0.1172195339E+02    0.2972199059E+02    0.4758773422E+02    0.0000000000E+00    0    0
  -15    2    4    4    0    0   -0.2931950951E+02   -0.2072665215E+01   -0.1849254417E+02    0.3477156448E+02    0.1777029991E+01    0    0
   16    1    6    6    0    0    0.7608289123E+00   -0.7391622066E+01    0.7785422325E+01    0.1076232910E+02    0.8406004781E-04    0    0
  -24    2    6    6    0    0    0.1827461421E+00   -0.1777062798E+02    0.1836798477E+02    0.2558581924E+02    0.1192763209E+01    0    0
 -321    1   11   11    0    0    0.1809935868E+00   -0.8865612030E+01    0.9623079300E+01    0.1309500694E+02    0.4936670661E+00    0    0
  310    1   11   11    0    0    0.1752619981E-02   -0.8905017853E+01    0.8744906425E+01    0.1249081516E+02    0.4977199435E+00    0    0
  -16    1    9    9    0    0   -0.2612037659E+01   -0.9608886391E-01   -0.2034277678E+01    0.3312138081E+01    0.3558930475E-03    0    0
20213    2    9    9    0    0   -0.2670862579E+02   -0.1976657867E+01   -0.1645899391E+02    0.3146079445E+02    0.1274818778E+01    0    0
  111    1   15   15    0    0   -0.9542798042E+01   -0.6124953628E+00   -0.5428234577E+01    0.1099654961E+02    0.1349634528E+00    0    0
  111    1   15   15    0    0   -0.1251586151E+02   -0.6989393830E+00   -0.7992465496E+01    0.1486717987E+02    0.1349641085E+00    0    0
  211    1   15   15    0    0   -0.4632295132E+01   -0.6693433523E+00   -0.3026802063E+01    0.5575589180E+01    0.1395679861E+00    0    0
   22    1   15   15    0    0   -0.1772547700E-01    0.4116549157E-02   -0.1152375899E-01    0.2153916471E-01    0.0000000000E+00    0    0
</event>
<event>
   19 9999    1    0.9119999695E+02    0.7565275169E-02    0.1185000000E+00
   11   -1    0    0    0    0    0.0000000000E+00    0.0000000000E+00    0.8000000000E+02    0.8000000000E+02    0.5109988851E-03    0    0
  -11   -1    0    0    0    0    0.0000000000E+00    0.0000000000E+00   -0.8000000000E+02    0.8000000000E+02    0.5109988851E-03    0    0
  -24    2    1    2    0    0    0.1039222050E+02   -0.7684972286E+01    0.4709944153E+02    0.9855547333E+02    0.8560237885E+02    0    0
   24    2    1    2    0    0   -0.1038995171E+02    0.7689839840E+01   -0.4713187027E+02    0.6141165543E+02    0.3718727875E+02    0    0
   22    1    1    2    0    0   -0.2268718323E-02   -0.4867454059E-02    0.3242801130E-01    0.3286966681E-01    0.0000000000E+00    0    0
   15    2    3    3    0    0    0.5194100380E+01   -0.4471063232E+02    0.4052614975E+02    0.6059328079E+02    0.1777029991E+01    0    0
  -16    1    3    3    0    0    0.5198120117E+01    0.3702565765E+02    0.6573291779E+01    0.3796219254E+02    0.0000000000E+00    0    0
   16    1    4    4    0    0    0.1176056480E+02    0.1620518208E+01   -0.4024250507E+01    0.1253521252E+02    0.0000000000E+00    0    0
  -15    2    4    4    0    0   -0.2215051651E+02    0.6069321632E+01   -0.4310762024E+02    0.4887644196E+02    0.1777029991E+01    0    0
   16    1    6    6    0    0    0.5104857087E+00   -0.3134792566E+01    0.3050481796E+01    0.4403743744E+01    0.5995752872E-03    0    0
  -24    2    6    6    0    0    0.4683818817E+01   -0.4157759857E+02    0.3747726059E+02    0.5619192123E+02    0.1533677816E+01    0    0
 -321    1   11   11    0    0    0.1872035384E+01   -0.1689400482E+02    0.1491228676E+02    0.2261707115E+02    0.4936670363E+00    0    0
  111    1   11   11    0    0    0.8993324637E+00   -0.8493982315E+01    0.7325867653E+01    0.1125358105E+02    0.1349641532E+00    0    0
  310    1   11   11    0    0    0.1912451148E+01   -0.1618961143E+02    0.1523910809E+02    0.2232126999E+02    0.4977200031E+00    0    0
  -16    1    9    9    0    0   -0.2259838820E+01    0.9000523090E+00   -0.4530269146E+01    0.5142013550E+01    0.4174610658E-03    0    0
   24    2    9    9    0    0   -0.1989155006E+02    0.5169508457E+01   -0.3857904434E+02    0.4373635101E+02    0.1458838105E+01    0    0
  211    1   16   16    0    0   -0.1884852529E+01    0.6893667579E+00   -0.4375678539E+01    0.4816008568E+01    0.1395682991E+00    0    0
  111    1   16   16    0    0   -0.3750294685E+01    0.1232330561E+01   -0.7153013706E+01    0.8171117783E+01    0.1349641830E+00    0    0
   22    1   16   16    0    0   -0.1425640106E+02    0.3247810602E+01   -0.2705035210E+02    0.3074922371E+02    0.1495049946E-03    0    0
</event>
<event>
   27 9999    1    0.9119999695E+02    0.7565275169E-02    0.1185000000E+00
   11   -1    0    0    0    0    0.0000000000E+00    0.0000000000E+00    0.8000000000E+02    0.8000000000E+02    0.5109988851E-03    0    0
  -11   -1    0    0    0    0    0.0000000000E+00    0.0000000000E+00   -0.8000000000E+02    0.8000000000E+02    0.5109988851E-03    0    0
  -24    2    1    2    0    0   -0.1371957779E+02    0.6020489216E+01   -0.2539483643E+02    0.8540363312E+02    0.8015241241E+02    0    0
   24    2    1    2    0    0    0.1372047710E+02   -0.6028984547E+01    0.2533975029E+02    0.7453628540E+02    0.6847594452E+02    0    0
   22    1    1    2    0    0   -0.8938793908E-03    0.8441563696E-02    0.5690064281E-01    0.5753035843E-01    0.0000000000E+00    0    0
   22    1    1    2    0    0   -0.2842122910E-06    0.3919812386E-07   -0.2183202421E-02    0.2183202421E-02    0.0000000000E+00    0    0
   22    1    1    2    0    0   -0.5397294444E-05    0.5359582792E-04    0.3694032202E-03    0.3733100311E-03    0.0000000000E+00    0    0
   15    2    3    3    0    0   -0.3240563965E+02    0.2407936859E+02    0.9868943214E+01    0.4159922028E+02    0.1777029991E+01    0    0
  -16    1    3    3    0    0    0.1868605995E+02   -0.1805887985E+02   -0.3526377869E+02    0.4380440903E+02    0.0000000000E+00    0    0
   16    1    4    4    0    0   -0.2294109726E+02   -0.1872722244E+02    0.1899450684E+02    0.3518229675E+02    0.0000000000E+00    0    0
  -15    2    4    4    0    0    0.3666157532E+02    0.1269823933E+02    0.6345243454E+01    0.3935398483E+02    0.1777029991E+01    0    0
   16    1    8    8    0    0   -0.1202239748E-01    0.7610420696E-02    0.1224866509E-01    0.1877462119E-01    0.2697398259E-05    0    0
  -24    2    8    8    0    0   -0.3239489365E+02    0.2407270622E+02    0.9857083321E+01    0.4158208466E+02    0.1727285743E+01    0    0
 -211    1   13   13    0    0   -0.2165356874E+01    0.1734858155E+01    0.7705031037E+00    0.2882994413E+01    0.1395680159E+00    0    0
 -211    1   13   13    0    0   -0.7714391232E+01    0.5524744987E+01    0.2524891376E+01    0.9819836617E+01    0.1395679563E+00    0    0
  211    1   13   13    0    0   -0.8522719383E+01    0.6341407776E+01    0.2108351946E+01    0.1083119678E+02    0.1395681202E+00    0    0
  111    1   13   13    0    0   -0.1748706460E+01    0.1347645879E+01    0.4893412888E+00    0.2265346289E+01    0.1349640042E+00    0    0
  111    1   13   13    0    0   -0.3283101320E+01    0.2648675442E+01    0.1111744404E+01    0.4364450455E+01    0.1349640340E+00    0    0
  111    1   13   13    0    0   -0.8960616112E+01    0.6475374699E+01    0.2852250814E+01    0.1141826057E+02    0.1349640340E+00    0    0
  -16    1   11   11    0    0    0.1084427595E+01    0.4835525453E+00    0.2555438578E+00    0.1214540601E+01    0.2157918607E-04    0    0
   24    2   11   11    0    0    0.3557859039E+02    0.1221518612E+02    0.6089949608E+01    0.3814099503E+02    0.1612818956E+01    0    0
  211    1   21   21    0    0    0.3575229406E+01    0.1198930979E+01    0.4660489857E+00    0.3802155018E+01    0.1395679861E+00    0    0
  211    1   21   21    0    0    0.1162074280E+02    0.3863905191E+01    0.1909113169E+01    0.1239498329E+02    0.1395679712E+00    0    0
 -211    1   21   21    0    0    0.3505548954E+01    0.1070722818E+01    0.6444204450E+00    0.3724255323E+01    0.1395679861E+00    0    0
  111    1   21   21    0    0    0.6846698284E+01    0.2724906445E+01    0.1089036703E+01    0.7450275898E+01    0.1349638999E+00    0    0
  111    1   21   21    0    0    0.8859483719E+01    0.2966268301E+01    0.1755920529E+01    0.9507400513E+01    0.1349639744E+00    0    0
  111    1   21   21    0    0    0.1170886278E+01    0.3904525936E+00    0.2254096866E+00    0.1261924267E+01    0.1349639893E+00    0    0
</event>
<event>
   20 9999    1    0.9119999695E+02    0.7565275169E-02    0.1185000000E+00
   11   -1    0    0    0    0    0.0000000000E+00    0.0000000000E+00    0.8000000000E+02    0.8000000000E+02    0.5109988851E-03    0    0
  -11   -1    0    0    0    0    0.0000000000E+00    0.0000000000E+00   -0.8000000000E+02    0.8000000000E+02    0.5109988851E-03    0    0
  -24    2    1    2    0    0    0.1850638151E+01   -0.2968937397E+01   -0.4309769630E+01    0.7867852020E+02    0.7848246002E+02    0    0
   24    2    1    2    0    0   -0.1850653648E+01    0.2968925476E+01    0.4267796040E+01    0.8127950287E+02    0.8109194946E+02    0    0
   22    1    1    2    0    0    0.1547518332E-04    0.1179408810E-04    0.4197338969E-01    0.4197339341E-01    0.0000000000E+00    0    0
   15    2    3    3    0    0   -0.3213801193E+02   -0.2051823997E+02   -0.1126741695E+02    0.3979902649E+02    0.1777029991E+01    0    0
  -16    1    3    3    0    0    0.3398865128E+02    0.1754930115E+02    0.6957647324E+01    0.3887949753E+02    0.0000000000E+00    0    0
   16    1    4    4    0    0   -0.9162244797E+01    0.2526397705E+02    0.3401544571E+02    0.4335050201E+02    0.0000000000E+00    0    0
  -15    2    4    4    0    0    0.7311591148E+01   -0.2229505157E+02   -0.2974765205E+02    0.3792900467E+02    0.1777029991E+01    0    0
   16    1    6    6    0    0   -0.1004752541E+02   -0.7168456078E+01   -0.3730850220E+01    0.1289413738E+02    0.2402956452E-03    0    0
 -323    2    6    6    0    0   -0.2209174919E+02   -0.1335058975E+02   -0.7537009239E+01    0.2690645218E+02    0.9311611056E+00    0    0
  111    1   11   11    0    0   -0.7618761063E+01   -0.4278491497E+01   -0.2704521418E+01    0.9147877693E+01    0.1349637955E+00    0    0
 -321    1   11   11    0    0   -0.1447298813E+02   -0.9072097778E+01   -0.4832488060E+01    0.1775857544E+02    0.4936670065E+00    0    0
  -16    1    9    9    0    0    0.2352809668E+01   -0.6992509842E+01   -0.9411112785E+01    0.1195825863E+02    0.5986036849E-03    0    0
   24    2    9    9    0    0    0.4959069252E+01   -0.1530341911E+02   -0.2033770943E+02    0.2597223663E+02    0.1465497136E+01    0    0
  211    1   15   15    0    0    0.6518638134E+00   -0.1579689026E+01   -0.2369268656E+01    0.2924595118E+01    0.1395676732E+00    0    0
  211    1   15   15    0    0    0.4274688065E+00   -0.8119897246E+00   -0.1216272831E+01    0.1529985547E+01    0.1395681500E+00    0    0
 -211    1   15   15    0    0    0.1417143345E+01   -0.4524800301E+01   -0.5950381279E+01    0.7609772205E+01    0.1395679861E+00    0    0
  111    1   15   15    0    0    0.2225665301E+00   -0.8238125443E+00   -0.8990387321E+00    0.1246871710E+01    0.1349640191E+00    0    0
  111    1   15   15    0    0    0.2240026474E+01   -0.7563125610E+01   -0.9902745247E+01    0.1266100979E+02    0.1349640787E+00    0    0
</event>
<event>
   19 9999    1    0.9119999695E+02    0.7565275169E-02    0.1185000000E+00
   11   -1    0    0    0    0    0.0000000000E+00    0.0000000000E+00    0.8000000000E+02    0.8000000000E+02    0.5109988851E-03    0    0
  -11   -1    0    0    0    0    0.0000000000E+00    0.0000000000E+00   -0.8000000000E+02    0.8000000000E+02    0.5109988851E-03    0    0
  -24    2    1    2    0    0   -0.1393353653E+02    0.9016680717E+01    0.2340559387E+02    0.8456746674E+02    0.7955118561E+02    0    0
   24    2    1    2    0    0    0.1393353653E+02   -0.9016680717E+01   -0.2340511513E+02    0.7543205261E+02    0.6976210022E+02    0    0
   22    1    1    2    0    0   -0.2307956919E-06    0.1687185147E-06   -0.4802894255E-03    0.4802895128E-03    0.0000000000E+00    0    0
   15    2    3    3    0    0   -0.3140366554E+02    0.6843791604E+00    0.2261604691E+02    0.3874663544E+02    0.1777029991E+01    0    0
  -16    1    3    3    0    0    0.3011356163E+02    0.6786830425E+01   -0.5908967018E+01    0.3142934227E+02    0.0000000000E+00    0    0
   22    1    3    3    0    0   -0.1264343166E+02    0.1545471072E+01    0.6698513508E+01    0.1439148808E+02    0.0000000000E+00    0    0
   16    1    4    4    0    0   -0.5376315594E+01    0.2815973854E+02   -0.1607072830E+02    0.3286554337E+02    0.0000000000E+00    0    0
  -15    2    4    4    0    0    0.1930985260E+02   -0.3717641830E+02   -0.7334386826E+01    0.4256650925E+02    0.1777029991E+01    0    0
   16    1    6    6    0    0   -0.1007154465E+02    0.5437121987E+00    0.7344105721E+01    0.1247667789E+02    0.3082124167E-03    0    0
  -24    2    6    6    0    0   -0.2133337402E+02    0.1406932771E+00    0.1527284622E+02    0.2627150917E+02    0.1341493011E+01    0    0
  111    1   12   12    0    0   -0.7158364296E+01    0.9099894017E-01    0.4795329094E+01    0.8617648125E+01    0.1349639595E+00    0    0
  111    1   12   12    0    0   -0.5343687534E+00   -0.2187976800E-01    0.3035164177E+00    0.6295761466E+00    0.1349637806E+00    0    0
 -321    1   12   12    0    0   -0.1364064312E+02    0.7157451659E-01    0.1017400169E+02    0.1702428627E+02    0.4936670065E+00    0    0
  -16    1   10   10    0    0    0.7494190335E+00   -0.1178176045E+01   -0.4397176802E+00    0.1463926077E+01    0.6103515625E-04    0    0
   24    2   10   10    0    0    0.1856119347E+02   -0.3599970627E+02   -0.6894957542E+01    0.4110425568E+02    0.1234009266E+01    0    0
  321    1   17   17    0    0    0.1161631107E+02   -0.2196213150E+02   -0.4007994175E+01    0.2517104721E+02    0.4936670363E+00    0    0
  130    1   17   17    0    0    0.6944882393E+01   -0.1403757477E+02   -0.2886963844E+01    0.1593320942E+02    0.4977200329E+00    0    0
</event>
<event>
   24 9999    1    0.9119999695E+02    0.7565275169E-02    0.1185000000E+00
   11   -1    0    0    0    0    0.0000000000E+00    0.0000000000E+00    0.8000000000E+02    0.8000000000E+02    0.5109988851E-03    0    0
  -11   -1    0    0    0    0    0.0000000000E+00    0.0000000000E+00   -0.8000000000E+02    0.8000000000E+02    0.5109988851E-03    0    0
  -24    2    1    2    0    0   -0.9192020416E+01   -0.1631195831E+02    0.2095777130E+02    0.7362957001E+02    0.6805521393E+02    0    0
   24    2    1    2    0    0    0.9190927505E+01    0.1631057167E+02   -0.2094549942E+02    0.8635803223E+02    0.8166081238E+02    0    0
   22    1    1    2    0    0    0.1092524384E-02    0.1387295430E-02   -0.1227162126E-01    0.1239801943E-01    0.0000000000E+00    0    0
   15    2    3    3    0    0   -0.2848098183E+02    0.1381331921E+02    0.2068885612E+02    0.3785710907E+02    0.1777029991E+01    0    0
  -16    1    3    3    0    0    0.1928896141E+02   -0.3012527847E+02    0.2689139843E+00    0.3577245712E+02    0.0000000000E+00    0    0
   16    1    4    4    0    0    0.1279657650E+02    0.4830279160E+02   -0.2076992607E+02    0.5411378860E+02    0.0000000000E+00    0    0
  -15    2    4    4    0    0   -0.3605648994E+01   -0.3199221992E+02   -0.1755724251E+00    0.3224424744E+02    0.1777029991E+01    0    0
   16    1    6    6    0    0   -0.7454820722E-01    0.1280356757E-01    0.2117002383E-01    0.7854639739E-01    0.1525878906E-04    0    0
  -24    2    6    6    0    0   -0.2840755272E+02    0.1380105877E+02    0.2066850090E+02    0.3778005219E+02    0.1639233112E+01    0    0
 -211    1   11   11    0    0   -0.7818312168E+01    0.3848334789E+01    0.6020734310E+01    0.1059265804E+02    0.1395678818E+00    0    0
 -211    1   11   11    0    0   -0.3129134893E+01    0.1584208608E+01    0.1965481758E+01    0.4022909164E+01    0.1395679116E+00    0    0
 -211    1   11   11    0    0   -0.9943848610E+01    0.4441718578E+01    0.7343481064E+01    0.1313602638E+02    0.1395678967E+00    0    0
  211    1   11   11    0    0   -0.6300823689E+01    0.3289279222E+01    0.4514253616E+01    0.8421264648E+01    0.1395679712E+00    0    0
  211    1   11   11    0    0   -0.1215433240E+01    0.6375179887E+00    0.8245496750E+00    0.1607192755E+01    0.1395680010E+00    0    0
  -16    1    9    9    0    0   -0.4422746003E+00   -0.2734906912E+01   -0.2119921148E+00    0.2778536081E+01    0.6103515625E-04    0    0
   24    2    9    9    0    0   -0.3163516045E+01   -0.2925857162E+02    0.3641277924E-01    0.2946697998E+02    0.1493228555E+01    0    0
  211    1   18   18    0    0   -0.5079953671E+00   -0.5550364017E+01   -0.1454149839E-01    0.5575328827E+01    0.1395680010E+00    0    0
  211    1   18   18    0    0   -0.9098796248E+00   -0.6709901333E+01    0.7160181180E-02    0.6772753239E+01    0.1395679712E+00    0    0
  211    1   18   18    0    0   -0.5011861324E+00   -0.3839474916E+01   -0.3068573587E-01    0.3874684095E+01    0.1395680010E+00    0    0
 -211    1   18   18    0    0   -0.4630442262E+00   -0.6606215000E+01    0.1006923467E+00    0.6624659061E+01    0.1395679414E+00    0    0
 -211    1   18   18    0    0   -0.6402026415E+00   -0.3877302647E+01   -0.1391969323E+00    0.3934741497E+01    0.1395679563E+00    0    0
  111    1   18   18    0    0   -0.1412081569E+00   -0.2675314188E+01    0.1129844263E+00    0.2684814215E+01    0.1349640042E+00    0    0
</event>
<event>
   18 9999    1    0.9119999695E+02    0.7565275169E-02    0.1185000000E+00
   11   -1    0    0    0    0    0.0000000000E+00    0.0000000000E+00    0.8000000000E+02    0.8000000000E+02    0.5109988851E-03    0    0
  -11   -1    0    0    0    0    0.0000000000E+00    0.0000000000E+00   -0.8000000000E+02    0.8000000000E+02    0.5109988851E-03    0    0
  -24    2    1    2    0    0    0.1626893997E+02    0.8621937752E+01    0.7974644661E+01    0.7667198181E+02    0.7399987793E+02    0    0
   24    2    1    2    0    0   -0.1626934814E+02   -0.8622936249E+01   -0.8948759079E+01    0.8235385895E+02    0.7976861572E+02    0    0
   22    1    1    2    0    0   -0.7600857498E-04   -0.9747649165E-04    0.9567377567E+00    0.9567377567E+00    0.0000000000E+00    0    0
   22    1    1    2    0    0    0.4858646134E-03    0.1096564112E-02    0.1737626269E-01    0.1741760597E-01    0.0000000000E+00    0    0
   15    2    3    3    0    0   -0.1994435310E+02   -0.6350547314E+01    0.2609443855E+02    0.3349901962E+02    0.1777029991E+01    0    0
  -16    1    3    3    0    0    0.3621329117E+02    0.1497248459E+02   -0.1811979485E+02    0.4317296219E+02    0.0000000000E+00    0    0
   16    1    4    4    0    0   -0.1231368351E+02   -0.4101420212E+02   -0.2077945328E+02    0.4759807968E+02    0.0000000000E+00    0    0
  -15    2    4    4    0    0   -0.3955665588E+01    0.3239126587E+02    0.1183069420E+02    0.3475578308E+02    0.1777029991E+01    0    0
   16    1    7    7    0    0   -0.2146977901E+01   -0.5497235656E+00    0.2169312954E+01    0.3101230145E+01    0.4727763007E-03    0    0
*****    2    7    7    0    0   -0.1779815865E+02   -0.5801073551E+01    0.2392615128E+02    0.3039910507E+02    0.1103602290E+01    0    0
  111    1   12   12    0    0   -0.1121749115E+02   -0.3546644211E+01    0.1568763256E+02    0.1960945702E+02    0.1349641681E+00    0    0
  111    1   12   12    0    0   -0.2440787554E+01   -0.9275614023E+00    0.3251368046E+01    0.4172220230E+01    0.1349634081E+00    0    0
 -211    1   12   12    0    0   -0.4139881134E+01   -0.1326867938E+01    0.4987152576E+01    0.6617428780E+01    0.1395679861E+00    0    0
  -16    1   10   10    0    0   -0.6905606389E+00    0.7062884808E+01    0.2938921213E+01    0.7681046486E+01    0.1220703125E-03    0    0
  -13    1   10   10    0    0   -0.3088636160E+01    0.2177718925E+02    0.7259524822E+01    0.2316241646E+02    0.1056587473E+00    0    0
   14    1   10   10    0    0   -0.1766244322E+00    0.3552466393E+01    0.1632714510E+01    0.3913690090E+01    0.1495049946E-03    0    0
</event>
<event>
   27 9999    1    0.9119999695E+02    0.7565275169E-02    0.1185000000E+00
   11   -1    0    0    0    0    0.0000000000E+00    0.0000000000E+00    0.8000000000E+02    0.8000000000E+02    0.5109988851E-03    0    0
  -11   -1    0    0    0    0    0.0000000000E+00    0.0000000000E+00   -0.8000000000E+02    0.8000000000E+02    0.5109988851E-03    0    0
  -24    2    1    2    0    0   -0.2584381104E+01   -0.1937150764E+02   -0.1401518703E+01    0.8282585907E+02    0.8047499084E+02    0    0
   24    2    1    2    0    0    0.2584381104E+01    0.1937150764E+02    0.1409449935E+01    0.7716620636E+02    0.7463713837E+02    0    0
   22    1    1    2    0    0    0.1516469155E-06    0.3592152353E-07   -0.7931163535E-02    0.7931163535E-02    0.0000000000E+00    0    0
   15    2    3    3    0    0    0.2539738274E+02    0.2142338181E+02    0.1117444396E+01    0.3329256439E+02    0.1777029991E+01    0    0
  -16    1    3    3    0    0   -0.2798176384E+02   -0.4079489136E+02   -0.2518963099E+01    0.4953329468E+02    0.0000000000E+00    0    0
   16    1    4    4    0    0    0.2143327141E+02    0.6313007832E+01   -0.3045358086E+02    0.3777114868E+02    0.0000000000E+00    0    0
  -15    2    4    4    0    0   -0.1627112198E+02    0.1173253727E+02    0.2911163139E+02    0.3539840317E+02    0.1777029991E+01    0    0
   22    1    4    4    0    0   -0.2577768803E+01    0.1325962186E+01    0.2751398563E+01    0.3996656418E+01    0.0000000000E+00    0    0
   16    1    6    6    0    0    0.7688317299E+01    0.6366211414E+01    0.3966863155E+00    0.9989806175E+01    0.8495734073E-04    0    0
  -24    2    6    6    0    0    0.1771006584E+02    0.1505801487E+02    0.7208020687E+00    0.2330406952E+02    0.1473051190E+01    0    0
 -211    1   12   12    0    0    0.1148008704E+01    0.1051235199E+01    0.1812948734E+00    0.1573329687E+01    0.1395680606E+00    0    0
 -211    1   12   12    0    0    0.1539004087E+01    0.1239212513E+01    0.1300118566E+00    0.1985085130E+01    0.1395680159E+00    0    0
 -211    1   12   12    0    0    0.3656998158E+01    0.3036865711E+01    0.1474504769E+00    0.4757878304E+01    0.1395680010E+00    0    0
  211    1   12   12    0    0    0.3606541395E+01    0.3258381844E+01    0.2019648105E+00    0.4866668701E+01    0.1395680159E+00    0    0
  211    1   12   12    0    0    0.5807646751E+01    0.4782919884E+01    0.1262966245E+00    0.7525988579E+01    0.1395680159E+00    0    0
  111    1   12   12    0    0    0.9522147179E+00    0.7683770657E+00    0.4069349542E-01    0.1231660247E+01    0.1349639893E+00    0    0
   22    1   12   12    0    0    0.9996266961E+00    0.9210008979E+00   -0.1069150046E+00    0.1363424778E+01    0.0000000000E+00    0    0
  -16    1    9    9    0    0   -0.1697163582E+01    0.9959523678E+00    0.2728636026E+01    0.3364184856E+01    0.7475249731E-04    0    0
   24    2    9    9    0    0   -0.1457458782E+02    0.1073703861E+02    0.2638411903E+02    0.3203558350E+02    0.1566598058E+01    0    0
  211    1   21   21    0    0   -0.5334403038E+01    0.3761262417E+01    0.9502810478E+01    0.1152934837E+02    0.1395679712E+00    0    0
  211    1   21   21    0    0   -0.1238443971E+01    0.9451133013E+00    0.2567462444E+01    0.3006381035E+01    0.1395680308E+00    0    0
 -211    1   21   21    0    0   -0.2441394329E+01    0.1582683682E+01    0.4146423340E+01    0.5067307472E+01    0.1395680010E+00    0    0
  111    1   21   21    0    0   -0.6043127775E+00    0.5600669980E+00    0.1361263871E+01    0.1596910596E+01    0.1349640042E+00    0    0
  111    1   21   21    0    0   -0.1430382848E+01    0.9516559243E+00    0.2370937586E+01    0.2931075811E+01    0.1349640042E+00    0    0
  111    1   21   21    0    0   -0.3525650024E+01    0.2936255932E+01    0.6435221672E+01    0.7904562473E+01    0.1349640191E+00    0    0
</event>
<event>
   18 9999    1    0.9119999695E+02    0.7565275169E-02    0.1185000000E+00
   11   -1    0    0    0    0    0.0000000000E+00    0.0000000000E+00    0.8000000000E+02    0.8000000000E+02    0.5109988851E-03    0    0
  -11   -1    0    0    0    0    0.0000000000E+00    0.0000000000E+00   -0.8000000000E+02    0.8000000000E+02    0.5109988851E-03    0    0
  -24    2    1    2    0    0    0.1373159122E+02    0.2620989561E+01    0.9531623840E+01    0.7900595856E+02    0.7717294312E+02    0    0
   24    2    1    2    0    0   -0.1373159122E+02   -0.2620989561E+01   -0.9531623840E+01    0.8099404144E+02    0.7920705414E+02    0    0
   15    2    3    3    0    0   -0.1771036983E+01    0.1634958076E+02   -0.3006879997E+02    0.3431815720E+02    0.1777029991E+01    0    0
  -16    1    3    3    0    0    0.1550262833E+02   -0.1372859192E+02    0.3960042572E+02    0.4468779755E+02    0.0000000000E+00    0    0
   16    1    4    4    0    0    0.8305544853E+01   -0.3405595779E+02    0.1186548138E+02    0.3700783539E+02    0.0000000000E+00    0    0
  -15    2    4    4    0    0   -0.2203713608E+02    0.3143496704E+02   -0.2139710617E+02    0.4398620605E+02    0.1777029991E+01    0    0
   16    1    5    5    0    0   -0.3626229763E+00    0.4135329247E+01   -0.7292662144E+01    0.8391386032E+01    0.1463571680E-03    0    0
  -24    2    5    5    0    0   -0.1408483744E+01    0.1221489620E+02   -0.2277732277E+02    0.2592812347E+02    0.1507862806E+01    0    0
 -321    1   10   10    0    0   -0.7586010098E+00    0.4497263432E+01   -0.8819997787E+01    0.9941676140E+01    0.4936669171E+00    0    0
 -211    1   10   10    0    0   -0.2823059857E+00    0.1475970387E+01   -0.2346919298E+01    0.2790285587E+01    0.1395678818E+00    0    0
  321    1   10   10    0    0   -0.3675767481E+00    0.6241662979E+01   -0.1161040497E+02    0.1319616222E+02    0.4936669469E+00    0    0
  -16    1    8    8    0    0   -0.5242474556E+01    0.7587985992E+01   -0.5378989220E+01    0.1067682457E+02    0.6194391754E-03    0    0
   24    2    8    8    0    0   -0.1679552841E+02    0.2384821701E+02   -0.1601895714E+02    0.3331111145E+02    0.1481881022E+01    0    0
  321    1   15   15    0    0   -0.7002600670E+01    0.9538178444E+01   -0.6485335827E+01    0.1350246429E+02    0.4936671257E+00    0    0
  211    1   15   15    0    0   -0.4003253877E+00    0.7099087238E+00   -0.4090370238E+00    0.9225081801E+00    0.1395678222E+00    0    0
 -321    1   15   15    0    0   -0.9392601967E+01    0.1360012913E+02   -0.9124584198E+01    0.1888613892E+02    0.4936670065E+00    0    0
</event>
<event>
   22 9999    1    0.9119999695E+02    0.7565275169E-02    0.1185000000E+00
   11   -1    0    0    0    0    0.0000000000E+00    0.0000000000E+00    0.8000000000E+02    0.8000000000E+02    0.5109988851E-03    0    0
  -11   -1    0    0    0    0    0.0000000000E+00    0.0000000000E+00   -0.8000000000E+02    0.8000000000E+02    0.5109988851E-03    0    0
  -24    2    1    2    0    0    0.4444477081E+01    0.1121129990E+02   -0.5038348198E+01    0.8089643097E+02    0.7983358765E+02    0    0
   24    2    1    2    0    0   -0.4444532394E+01   -0.1121123791E+02    0.4923788071E+01    0.7898900604E+02    0.7790747070E+02    0    0
   22    1    1    2    0    0    0.5546330794E-04   -0.6231432781E-04    0.1145602390E+00    0.1145602688E+00    0.0000000000E+00    0    0
   15    2    3    3    0    0   -0.3634823608E+02   -0.4628400803E+01   -0.5924088359E+00    0.3668957138E+02    0.1777029991E+01    0    0
  -16    1    3    3    0    0    0.4066016769E+02    0.1560642242E+02   -0.4066042423E+01    0.4374176788E+02    0.0000000000E+00    0    0
   22    1    3    3    0    0    0.1325435489E+00    0.2332783639E+00   -0.3798968494E+00    0.4650894403E+00    0.0000000000E+00    0    0
   16    1    4    4    0    0    0.2447493315E+01   -0.3760774994E+02    0.2486414146E+02    0.4515039825E+02    0.0000000000E+00    0    0
  -15    2    4    4    0    0   -0.6892025471E+01    0.2639651108E+02   -0.1994035530E+02    0.3383860779E+02    0.1777029991E+01    0    0
   16    1    6    6    0    0   -0.2722029924E+01   -0.2648090124E+00   -0.1149899140E+00    0.2737296343E+01    0.2157918607E-04    0    0
  -24    2    6    6    0    0   -0.3362759399E+02   -0.4363768101E+01   -0.4774421453E+00    0.3395367432E+02    0.1663443327E+01    0    0
 -211    1   12   12    0    0   -0.4311580181E+01   -0.5135441422E+00    0.1826000959E+00    0.4348133087E+01    0.1395680159E+00    0    0
 -211    1   12   12    0    0   -0.9966253281E+01   -0.1255944252E+01   -0.1320793182E+00    0.1004691505E+02    0.1395680308E+00    0    0
 -211    1   12   12    0    0   -0.6069438934E+01   -0.9438477755E+00   -0.4412972629E+00    0.6159801006E+01    0.1395680159E+00    0    0
  211    1   12   12    0    0   -0.4180958271E+01   -0.7769224048E+00    0.6484221667E-01    0.4255314350E+01    0.1395679712E+00    0    0
  211    1   12   12    0    0   -0.9099360466E+01   -0.8735099435E+00   -0.1515074223E+00    0.9143511772E+01    0.1395680755E+00    0    0
  -16    1   10   10    0    0   -0.2427113354E+00    0.6892248392E+00   -0.5270783901E+00    0.9009724259E+00    0.1900445059E-03    0    0
   24    2   10   10    0    0   -0.6649585724E+01    0.2570832443E+02   -0.1941406059E+02    0.3293896866E+02    0.1713136554E+01    0    0
  321    1   19   19    0    0   -0.1862702131E+01    0.5862290859E+01   -0.4751077175E+01    0.7787974834E+01    0.4936671853E+00    0    0
  211    1   19   19    0    0   -0.2306917191E+01    0.8711845398E+01   -0.6234129906E+01    0.1095910454E+02    0.1395679265E+00    0    0
 -321    1   19   19    0    0   -0.2479966164E+01    0.1113418674E+02   -0.8428853035E+01    0.1419188595E+02    0.4936669469E+00    0    0
</event>
<event>
   22 9999    1    0.9119999695E+02    0.7565275169E-02    0.1185000000E+00
   11   -1    0    0    0    0    0.0000000000E+00    0.0000000000E+00    0.8000000000E+02    0.8000000000E+02    0.5109988851E-03    0    0
  -11   -1    0    0    0    0    0.0000000000E+00    0.0000000000E+00   -0.8000000000E+02    0.8000000000E+02    0.5109988851E-03    0    0
  -24    2    1    2    0    0   -0.3269410610E+01   -0.1387050247E+02    0.1000829983E+02    0.8097443390E+02    0.7907978821E+02    0    0
   24    2    1    2    0    0    0.3269634724E+01    0.1387191582E+02   -0.1000907421E+02    0.7902360535E+02    0.7708065796E+02    0    0
   22    1    1    2    0    0   -0.2183636971E-03   -0.1413217164E-02    0.9970878018E-03    0.1743286964E-02    0.0000000000E+00    0    0
   22    1    1    2    0    0   -0.5670988230E-05    0.2759834956E-06   -0.2234517160E-03    0.2235238499E-03    0.0000000000E+00    0    0
   15    2    3    3    0    0    0.1479008961E+02   -0.8200608253E+01    0.4115355682E+02    0.4452830505E+02    0.1777029991E+01    0    0
  -16    1    3    3    0    0   -0.1805949974E+02   -0.5669894218E+01   -0.3114525604E+02    0.3644612885E+02    0.0000000000E+00    0    0
   16    1    4    4    0    0   -0.2447133255E+02   -0.1711607742E+02   -0.2033979988E+02    0.3613189316E+02    0.0000000000E+00    0    0
  -15    2    4    4    0    0    0.2774096680E+02    0.3098799324E+02    0.1033072662E+02    0.4289170837E+02    0.1777029991E+01    0    0
   16    1    7    7    0    0    0.1058412743E+02   -0.5628935814E+01    0.2897784233E+02    0.3135959053E+02    0.1726334885E-03    0    0
 -213    2    7    7    0    0    0.4206545353E+01   -0.2571995974E+01    0.1217733669E+02    0.1317046642E+02    0.9292331338E+00    0    0
 -211    1   12   12    0    0    0.3285683632E+01   -0.1568886161E+01    0.8578248978E+01    0.9320030212E+01    0.1395680457E+00    0    0
  111    1   12   12    0    0    0.9208609462E+00   -0.1003109336E+01    0.3599085331E+01    0.3850434303E+01    0.1349641979E+00    0    0
  -16    1   10   10    0    0    0.2069663048E+01    0.2383723736E+01    0.6673135757E+00    0.3226600647E+01    0.0000000000E+00    0    0
   24    2   10   10    0    0    0.2567239571E+02    0.2860548782E+02    0.9663819313E+01    0.3966679382E+02    0.1649073839E+01    0    0
  211    1   16   16    0    0    0.2444243431E+01    0.2886884689E+01    0.1130967736E+01    0.3950569153E+01    0.1395679414E+00    0    0
  211    1   16   16    0    0    0.3061640978E+01    0.3317027092E+01    0.9268638492E+00    0.4610300541E+01    0.1395679861E+00    0    0
 -211    1   16   16    0    0    0.5516585350E+01    0.5820607185E+01    0.2122855902E+01    0.8296877861E+01    0.1395679563E+00    0    0
  111    1   16   16    0    0    0.9128638268E+01    0.9991604805E+01    0.3436030626E+01    0.1396383667E+02    0.1349639595E+00    0    0
  111    1   16   16    0    0    0.3814659357E+01    0.4715977192E+01    0.1421285272E+01    0.6231399059E+01    0.1349639744E+00    0    0
  111    1   16   16    0    0    0.1706628442E+01    0.1873387098E+01    0.6258160472E+00    0.2613813400E+01    0.1349640042E+00    0    0
</event>
<event>
   19 9999    1    0.9119999695E+02    0.7565275169E-02    0.1185000000E+00
   11   -1    0    0    0    0    0.0000000000E+00    0.0000000000E+00    0.8000000000E+02    0.8000000000E+02    0.5109988851E-03    0    0
  -11   -1    0    0    0    0    0.0000000000E+00    0.0000000000E+00   -0.8000000000E+02    0.8000000000E+02    0.5109988851E-03    0    0
  -24    2    1    2    0    0   -0.5882165432E+01   -0.5919308662E+01    0.7507865429E+01    0.7857660675E+02    0.7777066803E+02    0    0
   24    2    1    2    0    0    0.5882165432E+01    0.5919308662E+01   -0.7507865429E+01    0.8142339325E+02    0.8064591217E+02    0    0
   15    2    3    3    0    0    0.2699456406E+02   -0.2759196663E+02    0.9254484177E+00    0.3865277863E+02    0.1777029991E+01    0    0
  -16    1    3    3    0    0   -0.3287673187E+02    0.2167265701E+02    0.6582417011E+01    0.3992382431E+02    0.0000000000E+00    0    0
   16    1    4    4    0    0    0.1523305988E+02   -0.3440595245E+02    0.5429839134E+01    0.3801708603E+02    0.0000000000E+00    0    0
  -15    2    4    4    0    0   -0.9350894928E+01    0.4032526016E+02   -0.1293770504E+02    0.4340631104E+02    0.1777029991E+01    0    0
   16    1    5    5    0    0    0.1209466830E+00   -0.1472170204E+00    0.7772692014E-02    0.1906865686E+00    0.7864199688E-05    0    0
  -24    2    5    5    0    0    0.2687467957E+02   -0.2744583321E+02    0.9177121520E+00    0.3846361160E+02    0.1756461263E+01    0    0
 -211    1   10   10    0    0    0.2394051075E+01   -0.2460917950E+01   -0.2892743796E-02    0.3436143875E+01    0.1395679861E+00    0    0
 -211    1   10   10    0    0    0.2517000437E+01   -0.2510773182E+01    0.2473670691E+00    0.3566502810E+01    0.1395679712E+00    0    0
  211    1   10   10    0    0    0.4911582470E+01   -0.4964690208E+01    0.1145988703E+00    0.6986014843E+01    0.1395679712E+00    0    0
  111    1   10   10    0    0    0.4542005062E+01   -0.5225639820E+01   -0.6605470181E-01    0.6925294399E+01    0.1349637806E+00    0    0
  111    1   10   10    0    0    0.9143527031E+01   -0.9157667160E+01    0.5346416235E+00    0.1295264530E+02    0.1349639744E+00    0    0
  111    1   10   10    0    0    0.3366513014E+01   -0.3126145124E+01    0.9005201608E-01    0.4597012043E+01    0.1349639595E+00    0    0
  -16    1    8    8    0    0   -0.7127221823E+00    0.5159447193E+01   -0.1478395939E+01    0.5414196491E+01    0.2402956452E-03    0    0
  -13    1    8    8    0    0   -0.7221411705E+01    0.2927586746E+02   -0.9186726570E+01    0.3152193260E+02    0.1056591719E+00    0    0
   14    1    8    8    0    0   -0.1417128921E+01    0.5891531944E+01   -0.2273091555E+01    0.6471889019E+01    0.1220703125E-03    0    0
</event>
<event>
   18 9999    1    0.9119999695E+02    0.7565275169E-02    0.1185000000E+00
   11   -1    0    0    0    0    0.0000000000E+00    0.0000000000E+00    0.8000000000E+02    0.8000000000E+02    0.5109988851E-03    0    0
  -11   -1    0    0    0    0    0.0000000000E+00    0.0000000000E+00   -0.8000000000E+02    0.8000000000E+02    0.5109988851E-03    0    0
  -24    2    1    2    0    0    0.1596943474E+02   -0.3563880444E+01    0.2159599304E+02    0.7242131805E+02    0.6716201019E+02    0    0
   24    2    1    2    0    0   -0.1596943474E+02    0.3563880444E+01   -0.2159599304E+02    0.8757868195E+02    0.8328214264E+02    0    0
   15    2    3    3    0    0   -0.5845682621E+01   -0.2262371445E+02   -0.1339710712E+02    0.2699342155E+02    0.1777029991E+01    0    0
  -16    1    3    3    0    0    0.2181511688E+02    0.1905983353E+02    0.3499309921E+02    0.4542789459E+02    0.0000000000E+00    0    0
   16    1    4    4    0    0    0.1965700340E+02    0.2805684090E+02    0.7969442844E+01    0.3517237854E+02    0.0000000000E+00    0    0
  -15    2    4    4    0    0   -0.3562643814E+02   -0.2449295998E+02   -0.2956543541E+02    0.5240630722E+02    0.1777029991E+01    0    0
   16    1    5    5    0    0   -0.1032441020E+01   -0.5148576736E+01   -0.2887639523E+01    0.5992681980E+01    0.6500674062E-03    0    0
  -24    2    5    5    0    0   -0.4813470840E+01   -0.1747602654E+02   -0.1050999355E+02    0.2100179863E+02    0.1426391721E+01    0    0
 -211    1   10   10    0    0   -0.1596072793E+01   -0.5194170475E+01   -0.2839303970E+01    0.6132534504E+01    0.1395677924E+00    0    0
  130    1   10   10    0    0   -0.2617502451E+01   -0.1050849247E+02   -0.6234214306E+01    0.1250571442E+02    0.4977200329E+00    0    0
  111    1   10   10    0    0   -0.5998963118E+00   -0.1773365021E+01   -0.1436476231E+01    0.2363552094E+01    0.1349640936E+00    0    0
  -16    1    8    8    0    0   -0.1041626644E+02   -0.7073210239E+01   -0.8959383965E+01    0.1545313835E+02    0.1495049946E-03    0    0
   24    2    8    8    0    0   -0.2521157455E+02   -0.1742071533E+02   -0.2060721588E+02    0.3695523071E+02    0.1388198733E+01    0    0
  321    1   15   15    0    0   -0.9755904198E+01   -0.6643793106E+01   -0.8046071053E+01    0.1429337597E+02    0.4936669767E+00    0    0
  211    1   15   15    0    0   -0.5628543854E+01   -0.3844253302E+01   -0.4225706577E+01    0.8020901680E+01    0.1395682842E+00    0    0
 -321    1   15   15    0    0   -0.9827122688E+01   -0.6932666302E+01   -0.8335435867E+01    0.1464094925E+02    0.4936670065E+00    0    0
</event>
<event>
   13 9999    1    0.9119999695E+02    0.7565275169E-02    0.1185000000E+00
   11   -1    0    0    0    0    0.0000000000E+00    0.0000000000E+00    0.8000000000E+02    0.8000000000E+02    0.5109988851E-03    0    0
  -11   -1    0    0    0    0    0.0000000000E+00    0.0000000000E+00   -0.8000000000E+02    0.8000000000E+02    0.5109988851E-03    0    0
  -24    2    1    2    0    0    0.3040745020E+01    0.4782940388E+01   -0.8338148117E+01    0.7757741547E+02    0.7691948700E+02    0    0
   24    2    1    2    0    0   -0.3040745020E+01   -0.4782940388E+01    0.8338148117E+01    0.8242258453E+02    0.8180364227E+02    0    0
   15    2    3    3    0    0   -0.1566967773E+02   -0.3206486511E+02   -0.5502035141E+01    0.3615417862E+02    0.1777029991E+01    0    0
  -16    1    3    3    0    0    0.1871042252E+02    0.3684780502E+02   -0.2836112499E+01    0.4142323303E+02    0.0000000000E+00    0    0
   16    1    4    4    0    0   -0.2335376358E+02   -0.2112673187E+02    0.3361769104E+02    0.4606393814E+02    0.0000000000E+00    0    0
  -15    2    4    4    0    0    0.2031301880E+02    0.1634379196E+02   -0.2527954483E+02    0.3635865021E+02    0.1777029991E+01    0    0
   16    1    5    5    0    0   -0.1345590210E+02   -0.2700169182E+02   -0.4249363422E+01    0.3046653557E+02    0.3229676804E-03    0    0
 -321    1    5    5    0    0   -0.2214392900E+01   -0.5064437389E+01   -0.1252888322E+01    0.5689068317E+01    0.4936670363E+00    0    0
  -16    1    8    8    0    0    0.1825244331E+02    0.1509282970E+02   -0.2331399345E+02    0.3323382950E+02    0.1220703125E-03    0    0
  -11    1    8    8    0    0    0.3352593184E+00    0.2715047598E+00   -0.2299939245E+00    0.4888876081E+00    0.4901848733E-03    0    0
   12    1    8    8    0    0    0.1726117134E+01    0.9801005721E+00   -0.1736552596E+01    0.2637364626E+01    0.5285799489E-04    0    0
</event>
<event>
   21 9999    1    0.9119999695E+02    0.7565275169E-02    0.1185000000E+00
   11   -1    0    0    0    0    0.0000000000E+00    0.0000000000E+00    0.8000000000E+02    0.8000000000E+02    0.5109988851E-03    0    0
  -11   -1    0    0    0    0    0.0000000000E+00    0.0000000000E+00   -0.8000000000E+02    0.8000000000E+02    0.5109988851E-03    0    0
  -24    2    1    2    0    0   -0.6147887230E+01   -0.9498280525E+01   -0.1809967995E+02    0.8212736511E+02    0.7930505371E+02    0    0
   24    2    1    2    0    0    0.6147886276E+01    0.9498280525E+01    0.1809751320E+02    0.7787021637E+02    0.7488816071E+02    0    0
   22    1    1    2    0    0   -0.2352454054E-07   -0.2043382352E-07    0.1166187925E-02    0.1166187925E-02    0.0000000000E+00    0    0
   22    1    1    2    0    0    0.8952609676E-07    0.5431835959E-07    0.8425985579E-03    0.8425985579E-03    0.0000000000E+00    0    0
   22    1    1    2    0    0    0.1408234596E-06   -0.1108856367E-06    0.2867018920E-03    0.2867019502E-03    0.0000000000E+00    0    0
   22    1    1    2    0    0    0.1166530183E-05   -0.1817017470E-07   -0.1276610856E-03    0.1276664261E-03    0.0000000000E+00    0    0
   15    2    3    3    0    0    0.2535952187E+02    0.1759385300E+02    0.9381901741E+01    0.3230831146E+02    0.1777029991E+01    0    0
  -16    1    3    3    0    0   -0.3150741005E+02   -0.2709213257E+02   -0.2748158264E+02    0.4981904984E+02    0.0000000000E+00    0    0
   16    1    4    4    0    0    0.3311293030E+02    0.1629539299E+02   -0.1006377506E+02    0.3825291443E+02    0.0000000000E+00    0    0
  -15    2    4    4    0    0   -0.2696504402E+02   -0.6797112942E+01    0.2816128922E+02    0.3961729813E+02    0.1777029991E+01    0    0
   16    1    9    9    0    0    0.1577840805E+02    0.1035564232E+02    0.5553372383E+01    0.1967326736E+02    0.1726334885E-03    0    0
 -323    2    9    9    0    0    0.9582112312E+01    0.7238902569E+01    0.3828898668E+01    0.1263631535E+02    0.8929773569E+00    0    0
 -211    1   14   14    0    0    0.2717073679E+01    0.1735317826E+01    0.9133017063E+00    0.3353716850E+01    0.1395679563E+00    0    0
  130    1   14   14    0    0    0.6865038395E+01    0.5503585339E+01    0.2915597200E+01    0.9282598495E+01    0.4977199733E+00    0    0
  -16    1   12   12    0    0   -0.3102783918E+01   -0.1048826814E+01    0.3228344440E+01    0.4598859787E+01    0.3949639504E-03    0    0
   24    2   12   12    0    0   -0.2386332130E+02   -0.5748553753E+01    0.2493405151E+02    0.3501999664E+02    0.1479628325E+01    0    0
  221    1   18   18    0    0   -0.1519601440E+02   -0.3350747347E+01    0.1554583168E+02    0.2200273705E+02    0.5488000512E+00    0    0
  211    1   18   18    0    0   -0.8091864586E+01   -0.2176735163E+01    0.8609772682E+01    0.1201516247E+02    0.1395679861E+00    0    0
  111    1   18   18    0    0   -0.5754433274E+00   -0.2210713327E+00    0.7784474492E+00    0.1002099514E+01    0.1349642575E+00    0    0
</event>
<event>
   18 9999    1    0.9119999695E+02    0.7565275169E-02    0.1185000000E+00
   11   -1    0    0    0    0    0.0000000000E+00    0.0000000000E+00    0.8000000000E+02    0.8000000000E+02    0.5109988851E-03    0    0
  -11   -1    0    0    0    0    0.0000000000E+00    0.0000000000E+00   -0.8000000000E+02    0.8000000000E+02    0.5109988851E-03    0    0
  -24    2    1    2    0    0   -0.1595894718E+02    0.4959479332E+01    0.1089691162E+02    0.8192105865E+02    0.7945458984E+02    0    0
   24    2    1    2    0    0    0.1595894718E+02   -0.4959479332E+01   -0.1089691162E+02    0.7807894135E+02    0.7548704529E+02    0    0
   15    2    3    3    0    0   -0.2604020119E+01    0.1046638012E+02    0.4424676514E+02    0.4557696915E+02    0.1777029991E+01    0    0
  -16    1    3    3    0    0   -0.1335492706E+02   -0.5506900787E+01   -0.3334985352E+02    0.3634408569E+02    0.0000000000E+00    0    0
   16    1    4    4    0    0   -0.5236699104E+01    0.1774736404E+02    0.2466086197E+02    0.3083099174E+02    0.0000000000E+00    0    0
  -15    2    4    4    0    0    0.2119564629E+02   -0.2270684242E+02   -0.3555777359E+02    0.4724795532E+02    0.1777029991E+01    0    0
   16    1    5    5    0    0   -0.5439212322E+00    0.2438166857E+01    0.9934396744E+01    0.1024366856E+02    0.4411874979E-03    0    0
  -24    2    5    5    0    0   -0.2060201406E+01    0.8028624535E+01    0.3431410980E+02    0.3533509445E+02    0.1551607966E+01    0    0
 -211    1   10   10    0    0   -0.6301535964E+00    0.4081050873E+01    0.1742203522E+02    0.1790527344E+02    0.1395681351E+00    0    0
  310    1   10   10    0    0   -0.1388734221E+01    0.3783895969E+01    0.1633460045E+02    0.1683191490E+02    0.4977200627E+00    0    0
  111    1   10   10    0    0   -0.4131361470E-01    0.1636777073E+00    0.5574716330E+00    0.5979022384E+00    0.1349639744E+00    0    0
  -16    1    8    8    0    0    0.2929126501E+01   -0.2780771255E+01   -0.5265845776E+01    0.6636384964E+01    0.1726334885E-03    0    0
20213    2    8    8    0    0    0.1826735306E+02   -0.1992696381E+02   -0.3029332542E+02    0.4061342621E+02    0.9923810959E+00    0    0
  111    1   15   15    0    0    0.5324849129E+01   -0.6022164822E+01   -0.8644178391E+01    0.1180510616E+02    0.1349640042E+00    0    0
  111    1   15   15    0    0    0.6812444210E+01   -0.7406838894E+01   -0.1105924034E+02    0.1495311546E+02    0.1349638700E+00    0    0
  211    1   15   15    0    0    0.6130058289E+01   -0.6497957706E+01   -0.1058990383E+02    0.1385520172E+02    0.1395680457E+00    0    0
</event>
<event>
   19 9999    1    0.9119999695E+02    0.7565275169E-02    0.1185000000E+00
   11   -1    0    0    0    0    0.0000000000E+00    0.0000000000E+00    0.8000000000E+02    0.8000000000E+02    0.5109988851E-03    0    0
  -11   -1    0    0    0    0    0.0000000000E+00    0.0000000000E+00   -0.8000000000E+02    0.8000000000E+02    0.5109988851E-03    0    0
  -24    2    1    2    0    0    0.3986865759E+01    0.8942948341E+01   -0.4822159290E+01    0.7897287750E+02    0.7821502686E+02    0    0
   24    2    1    2    0    0   -0.3986852169E+01   -0.8942913055E+01    0.4822021961E+01    0.8102698517E+02    0.8028853607E+02    0    0
   22    1    1    2    0    0   -0.1351913761E-04   -0.3510443275E-04    0.1369948295E-03    0.1420657354E-03    0.0000000000E+00    0    0
   15    2    3    3    0    0   -0.1338171196E+02   -0.3179359245E+02   -0.2181284666E+01    0.3460951614E+02    0.1777029991E+01    0    0
  -16    1    3    3    0    0    0.1736857796E+02    0.4073654175E+02   -0.2640874624E+01    0.4436335754E+02    0.0000000000E+00    0    0
   16    1    4    4    0    0   -0.9157793999E+01   -0.3422148514E+02   -0.2362481308E+02    0.4258059311E+02    0.0000000000E+00    0    0
  -15    2    4    4    0    0    0.5170941353E+01    0.2527857018E+02    0.2844683456E+02    0.3844639206E+02    0.1777029991E+01    0    0
   16    1    6    6    0    0   -0.1878932714E+01   -0.3716377497E+01   -0.2065247297E+00    0.4169472694E+01    0.2990099892E-03    0    0
  -24    2    6    6    0    0   -0.1150330639E+02   -0.2807846642E+02   -0.1974845767E+01    0.3044140625E+02    0.1432764888E+01    0    0
  310    1   11   11    0    0   -0.3296679974E+01   -0.7519810677E+01   -0.4907853901E+00    0.8240403175E+01    0.4977200031E+00    0    0
 -211    1   11   11    0    0   -0.4461946964E+01   -0.1071661186E+02   -0.7782001495E+00    0.1163528252E+02    0.1395680010E+00    0    0
  310    1   11   11    0    0   -0.3744679689E+01   -0.9842046738E+01   -0.7058603764E+00    0.1056572151E+02    0.4977200329E+00    0    0
  -16    1    9    9    0    0    0.1478960276E+01    0.7706625462E+01    0.8721642494E+01    0.1173228168E+02    0.3055570123E-03    0    0
   24    2    9    9    0    0    0.3692184687E+01    0.1757294083E+02    0.1972631264E+02    0.2671562195E+02    0.1468551636E+01    0    0
  321    1   16   16    0    0    0.1355429292E+01    0.6112741947E+01    0.7003090858E+01    0.9406901360E+01    0.4936670661E+00    0    0
  211    1   16   16    0    0    0.1060524821E+01    0.6088712692E+01    0.7065255642E+01    0.9387994766E+01    0.1395683587E+00    0    0
 -321    1   16   16    0    0    0.1276230931E+01    0.5371486664E+01    0.5657966614E+01    0.7920727730E+01    0.4936670363E+00    0    0
</event>
<event>
   20 9999    1    0.9119999695E+02    0.7565275169E-02    0.1185000000E+00
   11   -1    0    0    0    0    0.0000000000E+00    0.0000000000E+00    0.8000000000E+02    0.8000000000E+02    0.5109988851E-03    0    0
  -11   -1    0    0    0    0    0.0000000000E+00    0.0000000000E+00   -0.8000000000E+02    0.8000000000E+02    0.5109988851E-03    0    0
  -24    2    1    2    0    0    0.5363516331E+01   -0.1097183108E+01   -0.2433732897E+00    0.7987794495E+02    0.7968974304E+02    0    0
   24    2    1    2    0    0   -0.5363516331E+01    0.1097183108E+01    0.2433732897E+00    0.8012205505E+02    0.7993443298E+02    0    0
   15    2    3    3    0    0   -0.4170531750E+01    0.8513503522E-01    0.2994125366E+02    0.3028262520E+02    0.1777029991E+01    0    0
  -16    1    3    3    0    0    0.9467880249E+01   -0.2650117874E+01   -0.3922393799E+02    0.4043737030E+02    0.0000000000E+00    0    0
   22    1    3    3    0    0    0.6616769731E-01    0.1467799783E+01    0.9039313316E+01    0.9157947540E+01    0.0000000000E+00    0    0
   16    1    4    4    0    0    0.1962774658E+02   -0.3079336548E+02    0.1104926491E+02    0.3815188217E+02    0.0000000000E+00    0    0
  -15    2    4    4    0    0   -0.2499126434E+02    0.3189054871E+02   -0.1080589104E+02    0.4197017288E+02    0.1777029991E+01    0    0
   16    1    5    5    0    0   -0.1010108471E+01   -0.2974059880E+00    0.5343997478E+01    0.5446750164E+01    0.5543793086E-03    0    0
  -24    2    5    5    0    0   -0.3160575390E+01    0.3825443685E+00    0.2459834480E+02    0.2483697701E+02    0.1288815975E+01    0    0
 -321    1   11   11    0    0   -0.2153962851E+01    0.1298891306E+00    0.1410198689E+02    0.1427466965E+02    0.4936670065E+00    0    0
 -211    1   11   11    0    0   -0.8095123172E+00    0.3328252733E+00    0.6854360104E+01    0.6911427021E+01    0.1395680755E+00    0    0
  211    1   11   11    0    0   -0.1970984936E+00   -0.8016849309E-01    0.3641997576E+01    0.3650876999E+01    0.1395680457E+00    0    0
  -16    1    9    9    0    0   -0.1155871105E+02    0.1487040710E+02   -0.5022918701E+01    0.1949262810E+02    0.2668213856E-03    0    0
   24    2    9    9    0    0   -0.1343353653E+02    0.1702139854E+02   -0.5783398628E+01    0.2247920036E+02    0.1295692086E+01    0    0
  111    1   16   16    0    0   -0.1636873484E+01    0.2338730335E+01   -0.6615268588E+00    0.2933401823E+01    0.1349630505E+00    0    0
  111    1   16   16    0    0   -0.3639098704E+00    0.4529591501E+00   -0.1852398068E+00    0.6246050596E+00    0.1349640936E+00    0    0
  111    1   16   16    0    0   -0.9383971214E+01    0.1167019939E+02   -0.3823507071E+01    0.1545606327E+02    0.1349641085E+00    0    0
  211    1   16   16    0    0   -0.2048784494E+01    0.2559511185E+01   -0.1113125563E+01    0.3465132475E+01    0.1395680606E+00    0    0
</event>
<event>
   20 9999    1    0.9119999695E+02    0.7565275169E-02    0.1185000000E+00
   11   -1    0    0    0    0    0.0000000000E+00    0.0000000000E+00    0.8000000000E+02    0.8000000000E+02    0.5109988851E-03    0    0
  -11   -1    0    0    0    0    0.0000000000E+00    0.0000000000E+00   -0.8000000000E+02    0.8000000000E+02    0.5109988851E-03    0    0
  -24    2    1    2    0    0    0.1233973265E+01    0.2735605836E+00    0.1049208832E+02    0.7722216034E+02    0.7649562836E+02    0    0
   24    2    1    2    0    0   -0.1233885169E+01   -0.2735114098E+00   -0.1048885155E+02    0.8277459717E+02    0.8209763336E+02    0    0
   22    1    1    2    0    0   -0.8813513705E-04   -0.4916268881E-04   -0.3236713121E-02    0.3238286125E-02    0.0000000000E+00    0    0
   15    2    3    3    0    0    0.3528911209E+02   -0.1566830349E+02    0.2185029507E+01    0.3871368408E+02    0.1777029991E+01    0    0
  -16    1    3    3    0    0   -0.3405514145E+02    0.1594186401E+02    0.8307059288E+01    0.3850847626E+02    0.0000000000E+00    0    0
   16    1    4    4    0    0    0.3672491837E+02    0.3275034666E+01    0.1163158035E+02    0.3866185379E+02    0.0000000000E+00    0    0
  -15    2    4    4    0    0   -0.3795880127E+02   -0.3548546076E+01   -0.2212043190E+02    0.4411274338E+02    0.1777029991E+01    0    0
   16    1    6    6    0    0    0.8839456439E+00   -0.2382701784E+00    0.2273882180E-01    0.9157781601E+00    0.1683660666E-03    0    0
  -24    2    6    6    0    0    0.3440655899E+02   -0.1543065071E+02    0.2162376881E+01    0.3779943085E+02    0.1484930277E+01    0    0
 -321    1   11   11    0    0    0.1834672928E+02   -0.8285185814E+01    0.1118468285E+01    0.2016783142E+02    0.4936669767E+00    0    0
 -211    1   11   11    0    0    0.1199903011E+01   -0.6939963102E+00    0.9172199667E-01    0.1396169901E+01    0.1395675540E+00    0    0
  321    1   11   11    0    0    0.1485992432E+02   -0.6451467991E+01    0.9521864653E+00    0.1623542786E+02    0.4936669767E+00    0    0
  -16    1    9    9    0    0   -0.2175949812E+01    0.5093055218E-01   -0.1150627255E+01    0.2461969614E+01    0.3258385696E-03    0    0
   24    2    9    9    0    0   -0.3578434372E+02   -0.3599616289E+01   -0.2097067642E+02    0.4165251160E+02    0.1298357129E+01    0    0
  211    1   16   16    0    0   -0.6496305943E+01   -0.8864437342E+00   -0.3877007008E+01    0.7618296146E+01    0.1395682842E+00    0    0
  211    1   16   16    0    0   -0.3489133120E+01   -0.4443013668E+00   -0.2238941431E+01    0.4171785355E+01    0.1395683885E+00    0    0
 -211    1   16   16    0    0   -0.9240786552E+01   -0.9107351899E+00   -0.5052560329E+01    0.1057210541E+02    0.1395680606E+00    0    0
  111    1   16   16    0    0   -0.1655811691E+02   -0.1358135581E+01   -0.9802164078E+01    0.1929031754E+02    0.1349641979E+00    0    0
</event>
<event>
   19 9999    1    0.9119999695E+02    0.7565275169E-02    0.1185000000E+00
   11   -1    0    0    0    0    0.0000000000E+00    0.0000000000E+00    0.8000000000E+02    0.8000000000E+02    0.5109988851E-03    0    0
  -11   -1    0    0    0    0    0.0000000000E+00    0.0000000000E+00   -0.8000000000E+02    0.8000000000E+02    0.5109988851E-03    0    0
  -24    2    1    2    0    0   -0.1100512314E+02    0.7815615654E+01   -0.1583780193E+02    0.8278735352E+02    0.8012935638E+02    0    0
   24    2    1    2    0    0    0.1100512314E+02   -0.7815615654E+01    0.1583780193E+02    0.7721264648E+02    0.7435563660E+02    0    0
   15    2    3    3    0    0    0.3141572189E+02    0.1963061905E+02   -0.4861817360E+01    0.3740459824E+02    0.1777029991E+01    0    0
  -16    1    3    3    0    0   -0.4242084503E+02   -0.1181500435E+02   -0.1097598457E+02    0.4538275528E+02    0.0000000000E+00    0    0
   16    1    4    4    0    0    0.3653535843E+02   -0.4643646240E+01    0.3025973701E+02    0.4766600037E+02    0.0000000000E+00    0    0
  -15    2    4    4    0    0   -0.2553023529E+02   -0.3171969175E+01   -0.1442193508E+02    0.2954664612E+02    0.1777029991E+01    0    0
   16    1    5    5    0    0    0.9006341934E+01    0.5764295101E+01   -0.1966425061E+01    0.1087235546E+02    0.1726334885E-03    0    0
*****    2    5    5    0    0    0.2241061783E+02    0.1386709881E+02   -0.2895583868E+01    0.2653371620E+02    0.1058987498E+01    0    0
 -211    1   10   10    0    0    0.9019642830E+01    0.5798882008E+01   -0.1222151279E+01    0.1079324341E+02    0.1395680904E+00    0    0
 -211    1   10   10    0    0    0.4871140003E+01    0.2815192938E+01   -0.9145693183E+00    0.5701686859E+01    0.1395680606E+00    0    0
  211    1   10   10    0    0    0.8519835472E+01    0.5253023148E+01   -0.7588631511E+00    0.1003878498E+02    0.1395679563E+00    0    0
  -16    1    8    8    0    0   -0.3648561239E+01   -0.9406756759E+00   -0.2008182049E+01    0.4269621372E+01    0.3689031291E-03    0    0
   24    2    8    8    0    0   -0.2188267708E+02   -0.2231418371E+01   -0.1241431999E+02    0.2527818871E+02    0.1020100594E+01    0    0
  111    1   15   15    0    0   -0.7440896988E+01   -0.7580975294E+00   -0.4060342312E+01    0.8511536598E+01    0.1349639297E+00    0    0
  111    1   15   15    0    0   -0.3188497305E+01   -0.8830038458E-01   -0.1918360353E+01    0.3724598646E+01    0.1349639297E+00    0    0
  111    1   15   15    0    0   -0.2397263527E+01   -0.2894809246E+00   -0.1318892360E+01    0.2754698515E+01    0.1349639893E+00    0    0
  211    1   15   15    0    0   -0.8856019974E+01   -0.1095539451E+01   -0.5116725445E+01    0.1028735447E+02    0.1395679712E+00    0    0
</event>
<event>
   21 9999    1    0.9119999695E+02    0.7565275169E-02    0.1185000000E+00
   11   -1    0    0    0    0    0.0000000000E+00    0.0000000000E+00    0.8000000000E+02    0.8000000000E+02    0.5109988851E-03    0    0
  -11   -1    0    0    0    0    0.0000000000E+00    0.0000000000E+00   -0.8000000000E+02    0.8000000000E+02    0.5109988851E-03    0    0
  -24    2    1    2    0    0    0.1203975677E+02    0.3488578796E+00    0.1558752632E+02    0.8182649994E+02    0.7941994476E+02    0    0
   24    2    1    2    0    0   -0.1203980064E+02   -0.3488234282E+00   -0.1558029938E+02    0.7816388702E+02    0.7564237213E+02    0    0
   22    1    1    2    0    0    0.6953549018E-04   -0.5800477447E-04   -0.8419984020E-02    0.8420471102E-02    0.0000000000E+00    0    0
   22    1    1    2    0    0   -0.6193861868E-08   -0.6633537719E-08    0.1023816993E-02    0.1023816993E-02    0.0000000000E+00    0    0
   22    1    1    2    0    0   -0.2540066089E-04    0.2355404104E-04    0.1693024824E-03    0.1728100615E-03    0.0000000000E+00    0    0
   15    2    3    3    0    0    0.4080334473E+02    0.1374033356E+02    0.2356072044E+02    0.4911186218E+02    0.1777029991E+01    0    0
  -16    1    3    3    0    0   -0.2876358604E+02   -0.1339147568E+02   -0.7973194122E+01    0.3271463394E+02    0.0000000000E+00    0    0
   16    1    4    4    0    0    0.5486930847E+01    0.3023723221E+02    0.1238373184E+02    0.3313236237E+02    0.0000000000E+00    0    0
  -15    2    4    4    0    0   -0.1752673149E+02   -0.3058605576E+02   -0.2796403122E+02    0.4503152466E+02    0.1777029991E+01    0    0
   16    1    8    8    0    0    0.1513831043E+02    0.5069242477E+01    0.8703622818E+01    0.1818292427E+02    0.5741848145E-03    0    0
  -24    2    8    8    0    0    0.2566663742E+02    0.8671631813E+01    0.1485802460E+02    0.3093087006E+02    0.1408665180E+01    0    0
  221    1   13   13    0    0    0.1529723072E+02    0.5103054047E+01    0.9064093590E+01    0.1850690079E+02    0.5487998724E+00    0    0
 -211    1   13   13    0    0    0.5558626175E+01    0.2130688190E+01    0.3440049887E+01    0.6876887321E+01    0.1395679861E+00    0    0
  111    1   13   13    0    0    0.4810781956E+01    0.1437889934E+01    0.2353881598E+01    0.5547082424E+01    0.1349640936E+00    0    0
  -16    1   11   11    0    0   -0.6773790836E+01   -0.1189550114E+02   -0.1055327225E+02    0.1728463936E+02    0.3811644274E-03    0    0
   24    2   11   11    0    0   -0.1075363064E+02   -0.1869175911E+02   -0.1741185951E+02    0.2774865532E+02    0.1338893533E+01    0    0
  321    1   18   18    0    0   -0.4475934505E+01   -0.7876675606E+01   -0.7706809521E+01    0.1190439510E+02    0.4936671555E+00    0    0
  111    1   18   18    0    0   -0.2239115715E+01   -0.3961460829E+01   -0.3626271963E+01    0.5820212841E+01    0.1349638551E+00    0    0
  130    1   18   18    0    0   -0.4038580418E+01   -0.6853622913E+01   -0.6078779221E+01    0.1002404881E+02    0.4977200329E+00    0    0
</event>
<event>
   15 9999    1    0.9119999695E+02    0.7565275169E-02    0.1185000000E+00
   11   -1    0    0    0    0    0.0000000000E+00    0.0000000000E+00    0.8000000000E+02    0.8000000000E+02    0.5109988851E-03    0    0
  -11   -1    0    0    0    0    0.0000000000E+00    0.0000000000E+00   -0.8000000000E+02    0.8000000000E+02    0.5109988851E-03    0    0
  -24    2    1    2    0    0   -0.1557133389E+02   -0.1523633838E+01    0.7773232460E+01    0.8558038330E+02    0.8377822876E+02    0    0
   24    2    1    2    0    0    0.1557141113E+02    0.1523783445E+01   -0.7781220913E+01    0.7441162109E+02    0.7233084869E+02    0    0
   22    1    1    2    0    0   -0.7684201410E-04   -0.1495450997E-03    0.7988699712E-02    0.7990468293E-02    0.0000000000E+00    0    0
   15    2    3    3    0    0   -0.4913727188E+02   -0.9953430176E+01    0.8917724609E+01    0.5095317459E+02    0.1777029991E+01    0    0
  -16    1    3    3    0    0    0.3356594086E+02    0.8429796219E+01   -0.1144492269E+01    0.3462720871E+02    0.0000000000E+00    0    0
   16    1    4    4    0    0   -0.1330986881E+02    0.8590393066E+01    0.2532911110E+02    0.2987492943E+02    0.0000000000E+00    0    0
  -15    2    4    4    0    0    0.2888127899E+02   -0.7066609383E+01   -0.3311033249E+02    0.4453669739E+02    0.1777029991E+01    0    0
   16    1    6    6    0    0   -0.4821950793E+00    0.3202930093E-01    0.9049841762E-01    0.4916583300E+00    0.2067252644E-03    0    0
   11    1    6    6    0    0   -0.1957436180E+02   -0.3427131891E+01    0.3449651957E+01    0.2016930771E+02    0.5033087800E-03    0    0
  -12    1    6    6    0    0   -0.2908265114E+02   -0.6558719635E+01    0.5377925396E+01    0.3029421616E+02    0.2721031778E-03    0    0
  -16    1    9    9    0    0    0.2585625410E+01   -0.3521095514E+00   -0.2683926582E+01    0.3743381262E+01    0.9155273438E-04    0    0
  -11    1    9    9    0    0    0.1142127991E+02   -0.3554651499E+01   -0.1375470638E+02    0.1822836113E+02    0.2862802648E-03    0    0
   12    1    9    9    0    0    0.1487551212E+02   -0.3160126448E+01   -0.1667300415E+02    0.2256670761E+02    0.1100326917E-03    0    0
</event>
<event>
   20 9999    1    0.9119999695E+02    0.7565275169E-02    0.1185000000E+00
   11   -1    0    0    0    0    0.0000000000E+00    0.0000000000E+00    0.8000000000E+02    0.8000000000E+02    0.5109988851E-03    0    0
  -11   -1    0    0    0    0    0.0000000000E+00    0.0000000000E+00   -0.8000000000E+02    0.8000000000E+02    0.5109988851E-03    0    0
  -24    2    1    2    0    0    0.9623563290E+00    0.1274214840E+02   -0.3406097412E+01    0.8152455902E+02    0.8044478607E+02    0    0
   24    2    1    2    0    0   -0.9925462604E+00   -0.1274173546E+02    0.3469560385E+01    0.7834908295E+02    0.7722178650E+02    0    0
   22    1    1    2    0    0    0.3019180335E-01   -0.4119750520E-03   -0.9250950813E-01    0.9731251001E-01    0.0000000000E+00    0    0
   22    1    1    2    0    0   -0.1847454428E-05   -0.1684900553E-05    0.2904650010E-01    0.2904650010E-01    0.0000000000E+00    0    0
   15    2    3    3    0    0    0.3392765427E+02    0.9901391029E+01    0.2032271385E+02    0.4080801010E+02    0.1777029991E+01    0    0
  -16    1    3    3    0    0   -0.3296529770E+02    0.2840757370E+01   -0.2372881126E+02    0.4071654892E+02    0.0000000000E+00    0    0
   16    1    4    4    0    0    0.1873961449E+02   -0.4001829529E+02   -0.1810325980E+01    0.4422571945E+02    0.0000000000E+00    0    0
  -15    2    4    4    0    0   -0.1973216057E+02    0.2727655792E+02    0.5279886246E+01    0.3412336349E+02    0.1777029991E+01    0    0
   16    1    7    7    0    0    0.4174064159E+01    0.1452314019E+01    0.2714733124E+01    0.5186695099E+01    0.4272460938E-03    0    0
  -24    2    7    7    0    0    0.2975492668E+02    0.8449467659E+01    0.1760878181E+02    0.3562292480E+02    0.1474584579E+01    0    0
  221    1   12   12    0    0    0.1361395454E+02    0.4115506172E+01    0.7763597965E+01    0.1621270370E+02    0.5487999320E+00    0    0
 -211    1   12   12    0    0    0.1500626087E+02    0.4061659336E+01    0.9011404037E+01    0.1796969223E+02    0.1395678073E+00    0    0
  111    1   12   12    0    0    0.1134713650E+01    0.2723024786E+00    0.8337816000E+00    0.1440531492E+01    0.1349640638E+00    0    0
  -16    1   10   10    0    0   -0.3723358154E+01    0.5335681915E+01    0.1208921909E+01    0.6617733002E+01    0.6823937874E-03    0    0
   24    2   10   10    0    0   -0.1600957870E+02    0.2194194794E+02    0.4071172237E+01    0.2750697136E+02    0.1517654061E+01    0    0
  321    1   17   17    0    0   -0.1129292202E+02    0.1591230679E+02    0.3263826847E+01    0.1978958893E+02    0.4936669469E+00    0    0
  211    1   17   17    0    0   -0.3819235802E+01    0.4958459377E+01    0.5041469932E+00    0.6280646801E+01    0.1395677477E+00    0    0
 -211    1   17   17    0    0   -0.8974211812E+00    0.1071182966E+01    0.3031982183E+00    0.1436734557E+01    0.1395680159E+00    0    0
</event>
<event>
   19 9999    1    0.9119999695E+02    0.7565275169E-02    0.1185000000E+00
   11   -1    0    0    0    0    0.0000000000E+00    0.0000000000E+00    0.8000000000E+02    0.8000000000E+02    0.5109988851E-03    0    0
  -11   -1    0    0    0    0    0.0000000000E+00    0.0000000000E+00   -0.8000000000E+02    0.8000000000E+02    0.5109988851E-03    0    0
  -24    2    1    2    0    0    0.4598812580E+01   -0.4182352424E+00    0.2431475830E+02    0.7732226562E+02    0.7325436401E+02    0    0
   24    2    1    2    0    0   -0.4587551117E+01    0.4619553983E+00   -0.2435593414E+02    0.8252061462E+02    0.7870947266E+02    0    0
   22    1    1    2    0    0    0.8289374520E-08    0.8910409974E-06    0.9035744518E-01    0.9035744518E-01    0.0000000000E+00    0    0
   22    1    1    2    0    0   -0.1126162335E-01   -0.4372104257E-01   -0.4918204248E-01    0.6676246971E-01    0.0000000000E+00    0    0
   15    2    3    3    0    0    0.3274156570E+02    0.9085159302E+01    0.3192654991E+02    0.4665847015E+02    0.1777029991E+01    0    0
  -16    1    3    3    0    0   -0.2814275360E+02   -0.9503395081E+01   -0.7611791134E+01    0.3066379738E+02    0.0000000000E+00    0    0
   16    1    4    4    0    0    0.2346504021E+02    0.1807964134E+02    0.1318366241E+02    0.3242361069E+02    0.0000000000E+00    0    0
  -15    2    4    4    0    0   -0.2805258942E+02   -0.1761768723E+02   -0.3753959656E+02    0.5009700394E+02    0.1777029991E+01    0    0
   16    1    7    7    0    0    0.8804310799E+01    0.1738351822E+01    0.8380712509E+01    0.1227901077E+02    0.2735167218E-03    0    0
 -213    2    7    7    0    0    0.2393854523E+02    0.7347165585E+01    0.2354709435E+02    0.3438129425E+02    0.7570073605E+00    0    0
 -211    1   12   12    0    0    0.1411542416E+02    0.4493492603E+01    0.1428757095E+02    0.2058132172E+02    0.1395676881E+00    0    0
  111    1   12   12    0    0    0.8674901962E+01    0.2472047091E+01    0.8098759651E+01    0.1212324429E+02    0.1349642277E+00    0    0
   22    1   12   12    0    0    0.1148219466E+01    0.3816259503E+00    0.1160763144E+01    0.1676728129E+01    0.0000000000E+00    0    0
  -16    1   10   10    0    0   -0.6611741781E+00   -0.4081240892E+00   -0.8102148175E+00    0.1122570515E+01    0.1525878906E-04    0    0
   24    2   10   10    0    0   -0.2739252090E+02   -0.1721025658E+02   -0.3673086166E+02    0.4897640610E+02    0.1728933573E+01    0    0
  321    1   17   17    0    0   -0.2476823044E+02   -0.1563268185E+02   -0.3333461380E+02    0.4437664032E+02    0.4936670065E+00    0    0
  310    1   17   17    0    0   -0.2624292135E+01   -0.1577575326E+01   -0.3396249771E+01    0.4599770546E+01    0.4977200627E+00    0    0
</event>
<event>
   18 9999    1    0.9119999695E+02    0.7565275169E-02    0.1185000000E+00
   11   -1    0    0    0    0    0.0000000000E+00    0.0000000000E+00    0.8000000000E+02    0.8000000000E+02    0.5109988851E-03    0    0
  -11   -1    0    0    0    0    0.0000000000E+00    0.0000000000E+00   -0.8000000000E+02    0.8000000000E+02    0.5109988851E-03    0    0
  -24    2    1    2    0    0    0.3260117531E+01   -0.2107414818E+02   -0.2656845748E+00    0.8359266663E+02    0.8082645416E+02    0    0
   24    2    1    2    0    0   -0.3269236565E+01    0.2108312035E+02    0.3470330536E+00    0.7632475281E+02    0.7328137970E+02    0    0
   22    1    1    2    0    0    0.9187662043E-02   -0.8817543276E-02   -0.6516254693E-01    0.6639517844E-01    0.0000000000E+00    0    0
   22    1    1    2    0    0   -0.6847788609E-04   -0.1546962740E-03   -0.1618594117E-01    0.1618682593E-01    0.0000000000E+00    0    0
   15    2    3    3    0    0   -0.2479074669E+02    0.2119405556E+02    0.2711356878E+01    0.3277618790E+02    0.1777029991E+01    0    0
  -16    1    3    3    0    0    0.2805086517E+02   -0.4226820374E+02   -0.2977041483E+01    0.5081648254E+02    0.0000000000E+00    0    0
   16    1    4    4    0    0   -0.3157231712E+02    0.3259077072E+02    0.3754516125E+01    0.4553093338E+02    0.0000000000E+00    0    0
  -15    2    4    4    0    0    0.2830307961E+02   -0.1150765038E+02   -0.3407483101E+01    0.3079381752E+02    0.1777029991E+01    0    0
   16    1    7    7    0    0   -0.1180719495E+01    0.1140610576E+01   -0.9155508131E-01    0.1644224286E+01    0.2441406250E-03    0    0
  -24    2    7    7    0    0   -0.2361100388E+02    0.2005427933E+02    0.2803018808E+01    0.3113325310E+02    0.1330005288E+01    0    0
  111    1   12   12    0    0   -0.4898684502E+01    0.4551728249E+01    0.7185282111E+00    0.6726799488E+01    0.1349632591E+00    0    0
  111    1   12   12    0    0   -0.7677901268E+01    0.6571084499E+01    0.1128892183E+01    0.1016965675E+02    0.1349641532E+00    0    0
 -321    1   12   12    0    0   -0.1103441906E+02    0.8931467056E+01    0.9555985928E+00    0.1423679733E+02    0.4936670065E+00    0    0
  -16    1   10   10    0    0    0.2925830126E+01   -0.9138925076E+00   -0.1333486140E+00    0.3068136930E+01    0.1495049946E-03    0    0
  -11    1   10   10    0    0    0.1114246845E+02   -0.5344369411E+01   -0.1634419560E+01    0.1246548080E+02    0.5886017461E-03    0    0
   12    1   10   10    0    0    0.1423589706E+02   -0.5249841690E+01   -0.1639849186E+01    0.1526141167E+02    0.1447575778E-03    0    0
</event>
<event>
   24 9999    1    0.9119999695E+02    0.7565275169E-02    0.1185000000E+00
   11   -1    0    0    0    0    0.0000000000E+00    0.0000000000E+00    0.8000000000E+02    0.8000000000E+02    0.5109988851E-03    0    0
  -11   -1    0    0    0    0    0.0000000000E+00    0.0000000000E+00   -0.8000000000E+02    0.8000000000E+02    0.5109988851E-03    0    0
  -24    2    1    2    0    0   -0.2096783400E+01    0.1655744314E+01    0.6296171665E+01    0.8161477661E+02    0.8132768250E+02    0    0
   24    2    1    2    0    0    0.2097068310E+01   -0.1656208634E+01   -0.6028969288E+01    0.7811611176E+02    0.7783724976E+02    0    0
   22    1    1    2    0    0   -0.2846831339E-03    0.4647854657E-03   -0.2680604458E+00    0.2680609822E+00    0.0000000000E+00    0    0
   22    1    1    2    0    0   -0.7194335438E-07   -0.5157247642E-06    0.9567710222E-03    0.9567711968E-03    0.0000000000E+00    0    0
   22    1    1    2    0    0   -0.2051344872E-07    0.1021637441E-07   -0.9884678002E-04    0.9884678730E-04    0.0000000000E+00    0    0
   15    2    3    3    0    0   -0.2624093628E+02   -0.2979318047E+02    0.1210341358E+02    0.4154360199E+02    0.1777029991E+01    0    0
  -16    1    3    3    0    0    0.2414415169E+02    0.3144892502E+02   -0.5807241440E+01    0.4007117462E+02    0.0000000000E+00    0    0
   16    1    4    4    0    0   -0.2633174133E+02   -0.2831982422E+02   -0.3580453396E+00    0.3867171097E+02    0.0000000000E+00    0    0
  -15    2    4    4    0    0    0.2617997360E+02    0.2452910614E+02   -0.4929013252E+01    0.3625632477E+02    0.1777029991E+01    0    0
   22    1    4    4    0    0    0.2248834610E+01    0.2134510040E+01   -0.7419108152E+00    0.3188075066E+01    0.0000000000E+00    0    0
   16    1    8    8    0    0   -0.1020684528E+02   -0.1166629696E+02    0.5008800030E+01    0.1629018974E+02    0.4228639591E-03    0    0
  -24    2    8    8    0    0   -0.1603512192E+02   -0.1812805557E+02    0.7095089436E+01    0.2525504494E+02    0.1313583612E+01    0    0
 -211    1   14   14    0    0   -0.2235981703E+01   -0.2660984993E+01    0.7792897224E+00    0.3564719915E+01    0.1395685226E+00    0    0
 -211    1   14   14    0    0   -0.5936437607E+01   -0.6585151196E+01    0.2675072908E+01    0.9261803627E+01    0.1395679861E+00    0    0
  211    1   14   14    0    0   -0.2796892643E+01   -0.3440433741E+01    0.1516438007E+01    0.4688097477E+01    0.1395680308E+00    0    0
  111    1   14   14    0    0   -0.3288924932E+01   -0.3386011600E+01    0.1391641021E+01    0.4923106670E+01    0.1349640042E+00    0    0
  111    1   14   14    0    0   -0.1776884913E+01   -0.2055472136E+01    0.7326471806E+00    0.2817316771E+01    0.1349640042E+00    0    0
  -16    1   11   11    0    0    0.8809978515E-01    0.5332401395E-01    0.2865571901E-01    0.1068929434E+00    0.2911191550E-03    0    0
   24    2   11   11    0    0    0.2609290886E+02    0.2447675133E+02   -0.4957863808E+01    0.3615087128E+02    0.1534065485E+01    0    0
  221    1   21   21    0    0    0.1154840088E+02    0.1034239388E+02   -0.2170708656E+01    0.1566345501E+02    0.5488001704E+00    0    0
  211    1   21   21    0    0    0.1277599525E+02    0.1208750248E+02   -0.2436053991E+01    0.1775634193E+02    0.1395678669E+00    0    0
  111    1   21   21    0    0    0.1768514991E+01    0.2046858072E+01   -0.3511013687E+00    0.2731073380E+01    0.1349639893E+00    0    0
</event>
<event>
   20 9999    1    0.9119999695E+02    0.7565275169E-02    0.1185000000E+00
   11   -1    0    0    0    0    0.0000000000E+00    0.0000000000E+00    0.8000000000E+02    0.8000000000E+02    0.5109988851E-03    0    0
  -11   -1    0    0    0    0    0.0000000000E+00    0.0000000000E+00   -0.8000000000E+02    0.8000000000E+02    0.5109988851E-03    0    0
  -24    2    1    2    0    0   -0.8394813538E+01   -0.4656801224E+01    0.1494945431E+02    0.8047882080E+02    0.7849328613E+02    0    0
   24    2    1    2    0    0    0.8395681381E+01    0.4657529354E+01   -0.1338008976E+02    0.7795014191E+02    0.7619066620E+02    0    0
   22    1    1    2    0    0   -0.8686450892E-03   -0.7283177692E-03   -0.1570199728E+01    0.1570200205E+01    0.0000000000E+00    0    0
   22    1    1    2    0    0   -0.1261994687E-07   -0.6321896479E-10    0.8351318538E-03    0.8351318538E-03    0.0000000000E+00    0    0
   15    2    3    3    0    0    0.1501823521E+02    0.2921022415E+02    0.2076356506E+02    0.3889817429E+02    0.1777029991E+01    0    0
  -16    1    3    3    0    0   -0.2341304779E+02   -0.3386702728E+02   -0.5814110756E+01    0.4158064651E+02    0.0000000000E+00    0    0
   16    1    4    4    0    0    0.4042984772E+02   -0.1116481900E+01   -0.1930651855E+02    0.4481696701E+02    0.0000000000E+00    0    0
  -15    2    4    4    0    0   -0.3203416443E+02    0.5774011135E+01    0.5926427841E+01    0.3313317490E+02    0.1777029991E+01    0    0
   16    1    7    7    0    0    0.3669503212E+01    0.7975285530E+01    0.6108452320E+01    0.1069502735E+02    0.1220703125E-03    0    0
   13    1    7    7    0    0    0.8020960808E+01    0.1462272072E+02    0.1061669254E+02    0.1977081490E+02    0.1056589037E+00    0    0
  -14    1    7    7    0    0    0.3328361988E+01    0.6613367558E+01    0.4039237499E+01    0.8433863640E+01    0.1726334885E-03    0    0
  -16    1   10   10    0    0   -0.3838287115E+01    0.8338073492E+00    0.5353304148E+00    0.3964121819E+01    0.4315837214E-04    0    0
   24    2   10   10    0    0   -0.2819713783E+02    0.4940431118E+01    0.5391330719E+01    0.2917035675E+02    0.1535198569E+01    0    0
  211    1   15   15    0    0   -0.6692595005E+01    0.8414897323E+00    0.1022267580E+01    0.6823741436E+01    0.1395678371E+00    0    0
  211    1   15   15    0    0   -0.7929591656E+01    0.1430930018E+01    0.1517493963E+01    0.8200503349E+01    0.1395679861E+00    0    0
  211    1   15   15    0    0   -0.1230271101E+01    0.1381114423E+00    0.2309679538E+00    0.1267070413E+01    0.1395679712E+00    0    0
 -211    1   15   15    0    0   -0.2784736633E+01    0.4403039515E+00    0.5580655336E+00    0.2877419233E+01    0.1395679861E+00    0    0
 -211    1   15   15    0    0   -0.9559943199E+01    0.2089596033E+01    0.2062535524E+01    0.1000162220E+02    0.1395679116E+00    0    0
</event>
<event>
   16 9999    1    0.9119999695E+02    0.7565275169E-02    0.1185000000E+00
   11   -1    0    0    0    0    0.0000000000E+00    0.0000000000E+00    0.8000000000E+02    0.8000000000E+02    0.5109988851E-03    0    0
  -11   -1    0    0    0    0    0.0000000000E+00    0.0000000000E+00   -0.8000000000E+02    0.8000000000E+02    0.5109988851E-03    0    0
  -24    2    1    2    0    0    0.2121252823E+02   -0.3315930176E+02   -0.5200751781E+01    0.8803199005E+02    0.7856890869E+02    0    0
   24    2    1    2    0    0   -0.2121237946E+02    0.3315929031E+02    0.4360095978E+01    0.7112734985E+02    0.5908118439E+02    0    0
   22    1    1    2    0    0   -0.1480207284E-03    0.1242461167E-04    0.8406556249E+00    0.8406556249E+00    0.0000000000E+00    0    0
   15    2    3    3    0    0    0.4831450272E+02   -0.7307174206E+01    0.5168070316E+01    0.4916861725E+02    0.1777029991E+01    0    0
  -16    1    3    3    0    0   -0.2710197639E+02   -0.2585212708E+02   -0.1036882210E+02    0.3886337662E+02    0.0000000000E+00    0    0
   16    1    4    4    0    0   -0.2208021736E+02    0.3789293289E+02    0.2457429695E+02    0.5027231979E+02    0.0000000000E+00    0    0
  -15    2    4    4    0    0    0.8678375483E+00   -0.4733643532E+01   -0.2021420097E+02    0.2085503006E+02    0.1777029991E+01    0    0
   16    1    6    6    0    0    0.1135832596E+02   -0.2070190668E+01    0.1551160574E+01    0.1164917850E+02    0.8631674427E-04    0    0
  -24    2    6    6    0    0    0.3695807648E+02   -0.5237270355E+01    0.3617113113E+01    0.3752136993E+02    0.1200546384E+01    0    0
 -321    1   11   11    0    0    0.2092155266E+02   -0.3104788780E+01    0.2348531723E+01    0.2128639030E+02    0.4936669767E+00    0    0
  310    1   11   11    0    0    0.1603652382E+02   -0.2132481575E+01    0.1268581510E+01    0.1623497963E+02    0.4977200031E+00    0    0
  -16    1    9    9    0    0    0.9044834375E+00   -0.2646713495E+01   -0.1154579067E+02    0.1187975025E+02    0.1181940752E-03    0    0
  -11    1    9    9    0    0    0.1727233641E-01   -0.5586824417E+00   -0.4512165070E+01    0.4546653748E+01    0.4882812500E-03    0    0
   12    1    9    9    0    0   -0.5388407037E-01   -0.1528433800E+01   -0.4157040119E+01    0.4429446697E+01    0.1726334885E-03    0    0
</event>
<event>
   17 9999    1    0.9119999695E+02    0.7565275169E-02    0.1185000000E+00
   11   -1    0    0    0    0    0.0000000000E+00    0.0000000000E+00    0.8000000000E+02    0.8000000000E+02    0.5109988851E-03    0    0
  -11   -1    0    0    0    0    0.0000000000E+00    0.0000000000E+00   -0.8000000000E+02    0.8000000000E+02    0.5109988851E-03    0    0
  -24    2    1    2    0    0   -0.1539743137E+02    0.3144482613E+02    0.3235921097E+02    0.9351023865E+02    0.8044369507E+02    0    0
   24    2    1    2    0    0    0.1539743137E+02   -0.3144482613E+02   -0.3237868881E+02    0.6647028351E+02    0.4630400848E+02    0    0
   22    1    1    2    0    0   -0.1252500113E-06   -0.1253104358E-06    0.1901281439E-01    0.1901281439E-01    0.0000000000E+00    0    0
   22    1    1    2    0    0    0.6778994699E-08    0.1326119881E-08    0.4667958128E-03    0.4667958128E-03    0.0000000000E+00    0    0
   15    2    3    3    0    0   -0.2423812294E+02    0.5545581055E+02    0.1436077213E+02    0.6222718811E+02    0.1777029991E+01    0    0
  -16    1    3    3    0    0    0.8840692520E+01   -0.2401098442E+02    0.1799843788E+02    0.3128304672E+02    0.0000000000E+00    0    0
   16    1    4    4    0    0    0.1362776399E+01    0.1343715549E+01   -0.3065903473E+02    0.3071870995E+02    0.0000000000E+00    0    0
  -15    2    4    4    0    0    0.1403465462E+02   -0.3278853989E+02   -0.1719654918E+01    0.3575157547E+02    0.1777029991E+01    0    0
   16    1    7    7    0    0   -0.5833942890E+01    0.1326386929E+02    0.3395871401E+01    0.1488277721E+02    0.5681722541E-03    0    0
  -24    2    7    7    0    0   -0.1840513229E+02    0.4219412231E+02    0.1096546555E+02    0.4734685898E+02    0.1546222091E+01    0    0
  130    1   12   12    0    0   -0.7576852322E+01    0.1795309639E+02    0.5006434917E+01    0.2012546921E+02    0.4977200627E+00    0    0
 -211    1   12   12    0    0   -0.1683164716E+01    0.3777999401E+01    0.1093933702E+01    0.4280478001E+01    0.1395681947E+00    0    0
  130    1   12   12    0    0   -0.9145114899E+01    0.2046302223E+02    0.4865096092E+01    0.2294090843E+02    0.4977200329E+00    0    0
  -16    1   10   10    0    0    0.8715032578E+01   -0.2173405075E+02   -0.1767242551E+01    0.2348284340E+02    0.1726334885E-03    0    0
  211    1   10   10    0    0    0.5320175648E+01   -0.1105578232E+02    0.4751993716E-01    0.1227013969E+02    0.1395678520E+00    0    0
</event>
<event>
   13 9999    1    0.9119999695E+02    0.7565275169E-02    0.1185000000E+00
   11   -1    0    0    0    0    0.0000000000E+00    0.0000000000E+00    0.8000000000E+02    0.8000000000E+02    0.5109988851E-03    0    0
  -11   -1    0    0    0    0    0.0000000000E+00    0.0000000000E+00   -0.8000000000E+02    0.8000000000E+02    0.5109988851E-03    0    0
  -24    2    1    2    0    0    0.6976655960E+01   -0.1967406464E+02    0.1615760231E+02    0.8505783081E+02    0.8085804749E+02    0    0
   24    2    1    2    0    0   -0.6976655960E+01    0.1967406464E+02   -0.1615747833E+02    0.7494204712E+02    0.7013917542E+02    0    0
   22    1    1    2    0    0   -0.1472679223E-07    0.3456622011E-07   -0.1237973775E-03    0.1237973920E-03    0.0000000000E+00    0    0
   15    2    3    3    0    0    0.5076241493E+01   -0.7044735432E+01    0.4901276016E+02    0.4980768204E+02    0.1777029991E+01    0    0
  -16    1    3    3    0    0    0.1900414467E+01   -0.1262932968E+02   -0.3285515976E+02    0.3525014877E+02    0.0000000000E+00    0    0
   16    1    4    4    0    0    0.1092723656E+02   -0.2375080109E+02   -0.6823492050E+01    0.2701971626E+02    0.0000000000E+00    0    0
  -15    2    4    4    0    0   -0.1790389252E+02    0.4342486572E+02   -0.9333985329E+01    0.4792232895E+02    0.1777029991E+01    0    0
   16    1    6    6    0    0    0.1675417781E+01   -0.1966870666E+01    0.1901387978E+02    0.1918862152E+02    0.3452669771E-03    0    0
 -321    1    6    6    0    0    0.3401023865E+01   -0.5078142166E+01    0.3000081253E+02    0.3062102318E+02    0.4936670065E+00    0    0
  -16    1    9    9    0    0   -0.4749686241E+01    0.1124025345E+02   -0.3211776972E+01    0.1261817455E+02    0.0000000000E+00    0    0
  211    1    9    9    0    0   -0.1315491199E+02    0.3218632507E+02   -0.6122576714E+01    0.3530604172E+02    0.1395681798E+00    0    0
</event>
<event>
   17 9999    1    0.9119999695E+02    0.7565275169E-02    0.1185000000E+00
   11   -1    0    0    0    0    0.0000000000E+00    0.0000000000E+00    0.8000000000E+02    0.8000000000E+02    0.5109988851E-03    0    0
  -11   -1    0    0    0    0    0.0000000000E+00    0.0000000000E+00   -0.8000000000E+02    0.8000000000E+02    0.5109988851E-03    0    0
  -24    2    1    2    0    0    0.2165883636E+02    0.2543108368E+02   -0.7299449921E+01    0.8395498657E+02    0.7667667389E+02    0    0
   24    2    1    2    0    0   -0.2165883636E+02   -0.2543108368E+02    0.7299449921E+01    0.7604501343E+02    0.6792434692E+02    0    0
   15    2    3    3    0    0   -0.2782729721E+02    0.6971923113E+00   -0.6433985233E+01    0.2862513924E+02    0.1777029991E+01    0    0
  -16    1    3    3    0    0    0.4948613358E+02    0.2473389244E+02   -0.8654646873E+00    0.5532984543E+02    0.0000000000E+00    0    0
   16    1    4    4    0    0   -0.3824721909E+02   -0.2744265938E+02    0.2357844925E+02    0.5264876556E+02    0.0000000000E+00    0    0
  -15    2    4    4    0    0    0.1658838272E+02    0.2011575460E+01   -0.1627899933E+02    0.2339624977E+02    0.1777029991E+01    0    0
   16    1    5    5    0    0   -0.2719043493E+01    0.1215996742E+00   -0.7422446012E+00    0.2821154356E+01    0.6306145806E-03    0    0
  -24    2    5    5    0    0   -0.2510934830E+02    0.5756200552E+00   -0.5691993713E+01    0.2580511093E+02    0.1641403079E+01    0    0
 -321    1   10   10    0    0   -0.9870718002E+01   -0.1533990949E+00   -0.2027695894E+01    0.1009008789E+02    0.4936672449E+00    0    0
 -211    1   10   10    0    0   -0.2935155153E+01    0.2855975032E+00   -0.5064988732E+00    0.2995450020E+01    0.1395680308E+00    0    0
  321    1   10   10    0    0   -0.1230347633E+02    0.4434217215E+00   -0.3157799006E+01    0.1271957302E+02    0.4936670363E+00    0    0
  -16    1    8    8    0    0    0.7245244503E+01    0.6753239036E+00   -0.7323705196E+01    0.1032406330E+02    0.1220703125E-03    0    0
   24    2    8    8    0    0    0.9343790054E+01    0.1336330652E+01   -0.8955933571E+01    0.1307310677E+02    0.1266950250E+01    0    0
  321    1   15   15    0    0    0.2019321203E+01    0.3663980365E+00   -0.1774551153E+01    0.2757652044E+01    0.4936669767E+00    0    0
  310    1   15   15    0    0    0.7324469566E+01    0.9699326754E+00   -0.7181383133E+01    0.1031545544E+02    0.4977200925E+00    0    0
</event>
<event>
   20 9999    1    0.9119999695E+02    0.7565275169E-02    0.1185000000E+00
   11   -1    0    0    0    0    0.0000000000E+00    0.0000000000E+00    0.8000000000E+02    0.8000000000E+02    0.5109988851E-03    0    0
  -11   -1    0    0    0    0    0.0000000000E+00    0.0000000000E+00   -0.8000000000E+02    0.8000000000E+02    0.5109988851E-03    0    0
  -24    2    1    2    0    0    0.7552560329E+01    0.7260866642E+01    0.6732061386E+01    0.7894456482E+02    0.7795615387E+02    0    0
   24    2    1    2    0    0   -0.7552633286E+01   -0.7261037350E+01   -0.6819017887E+01    0.8096785736E+02    0.7999706268E+02    0    0
   22    1    1    2    0    0    0.1656784734E-03   -0.1860181146E-04    0.8636605740E-01    0.8636621386E-01    0.0000000000E+00    0    0
   22    1    1    2    0    0   -0.9272542957E-04    0.1904051314E-03    0.8913102793E-03    0.9161256603E-03    0.0000000000E+00    0    0
   22    1    1    2    0    0   -0.2180750336E-07   -0.1113133408E-05   -0.3005383478E-03    0.3005404142E-03    0.0000000000E+00    0    0
   15    2    3    3    0    0   -0.1942719078E+02    0.2840106392E+02   -0.1582128620E+02    0.3791447067E+02    0.1777029991E+01    0    0
  -16    1    3    3    0    0    0.2697975159E+02   -0.2114019585E+02    0.2255334663E+02    0.4103009033E+02    0.0000000000E+00    0    0
   16    1    4    4    0    0   -0.9711091995E+01    0.1628098106E+02    0.3099732590E+02    0.3633469391E+02    0.0000000000E+00    0    0
  -15    2    4    4    0    0    0.2158458471E+01   -0.2354201889E+02   -0.3781634521E+02    0.4463316345E+02    0.1777029991E+01    0    0
   16    1    8    8    0    0   -0.7456636429E+01    0.1126670837E+02   -0.6711560726E+01    0.1508592701E+02    0.1726334885E-03    0    0
*****    2    8    8    0    0   -0.1197131824E+02    0.1713547134E+02   -0.9110347748E+01    0.2283003426E+02    0.1129240990E+01    0    0
  111    1   13   13    0    0   -0.1121067047E+01    0.1999680996E+01   -0.9969956875E+00    0.2503543615E+01    0.1349641085E+00    0    0
  111    1   13   13    0    0   -0.2857481480E+01    0.3856307268E+01   -0.2392722368E+01    0.5364665985E+01    0.1349641830E+00    0    0
 -211    1   13   13    0    0   -0.7992769241E+01    0.1127948284E+02   -0.5720629215E+01    0.1496182346E+02    0.1395677477E+00    0    0
  -16    1   11   11    0    0   -0.3348862007E-01   -0.4022679806E+01   -0.5968347549E+01    0.7197516441E+01    0.4315837214E-04    0    0
   24    2   11   11    0    0    0.2192032099E+01   -0.1952026558E+02   -0.3184948540E+02    0.3743740463E+02    0.1150537372E+01    0    0
  321    1   18   18    0    0    0.1353932500E+01   -0.9485029221E+01   -0.1543062687E+02    0.1816994476E+02    0.4936670363E+00    0    0
  310    1   18   18    0    0    0.8380995989E+00   -0.1003523540E+02   -0.1641885757E+02    0.1926745987E+02    0.4977199435E+00    0    0
</event>
<event>
   21 9999    1    0.9119999695E+02    0.7565275169E-02    0.1185000000E+00
   11   -1    0    0    0    0    0.0000000000E+00    0.0000000000E+00    0.8000000000E+02    0.8000000000E+02    0.5109988851E-03    0    0
  -11   -1    0    0    0    0    0.0000000000E+00    0.0000000000E+00   -0.8000000000E+02    0.8000000000E+02    0.5109988851E-03    0    0
  -24    2    1    2    0    0    0.4361870289E+01   -0.5122530937E+01    0.2852476692E+02    0.7385073090E+02    0.6778644562E+02    0    0
   24    2    1    2    0    0   -0.4361870289E+01    0.5122530937E+01   -0.2852476692E+02    0.8614926910E+02    0.8101091003E+02    0    0
   15    2    3    3    0    0   -0.8572735786E+01    0.2749705696E+02    0.3668767810E+00    0.2885952759E+02    0.1777029991E+01    0    0
  -16    1    3    3    0    0    0.1293460655E+02   -0.3261958694E+02    0.2815789032E+02    0.4499120331E+02    0.0000000000E+00    0    0
   16    1    4    4    0    0   -0.3665640640E+02    0.2244094658E+02   -0.6809312820E+01    0.4351614380E+02    0.0000000000E+00    0    0
  -15    2    4    4    0    0    0.3229453659E+02   -0.1731841660E+02   -0.2171545410E+02    0.4263312531E+02    0.1777029991E+01    0    0
   16    1    5    5    0    0   -0.7461969554E-01    0.7420143485E+00    0.1401992589E+00    0.7588210702E+00    0.4796213761E-03    0    0
  -24    2    5    5    0    0   -0.8498454094E+01    0.2675612450E+02    0.2266919613E+00    0.2810184288E+02    0.1244293571E+01    0    0
 -211    1   10   10    0    0   -0.1276998162E+01    0.3176476955E+01   -0.1486445814E+00    0.3429621696E+01    0.1395681500E+00    0    0
 -211    1   10   10    0    0   -0.3689863682E+01    0.1203918839E+02    0.3965406418E+00    0.1259896374E+02    0.1395677924E+00    0    0
  211    1   10   10    0    0   -0.1597742319E+01    0.4966464043E+01    0.3784105554E-01    0.5219142914E+01    0.1395680159E+00    0    0
  111    1   10   10    0    0   -0.1933850050E+01    0.6573996067E+01   -0.5904509127E-01    0.6854115486E+01    0.1349639744E+00    0    0
  -16    1    8    8    0    0    0.3940385580E+01   -0.2323559523E+01   -0.2877560139E+01    0.5404250145E+01    0.3610888671E-03    0    0
   24    2    8    8    0    0    0.2835541916E+02   -0.1499553776E+02   -0.1883874702E+02    0.3723055267E+02    0.1523004293E+01    0    0
  211    1   16   16    0    0    0.1117649078E+02   -0.5493168354E+01   -0.7157722473E+01    0.1436458588E+02    0.1395681798E+00    0    0
  211    1   16   16    0    0    0.2889230013E+01   -0.1581390381E+01   -0.1743018866E+01    0.3729080200E+01    0.1395681202E+00    0    0
 -211    1   16   16    0    0    0.5963963032E+01   -0.3386630058E+01   -0.4378257751E+01    0.8137981415E+01    0.1395681500E+00    0    0
  111    1   16   16    0    0    0.7099428177E+01   -0.3925083637E+01   -0.4698008537E+01    0.9375374794E+01    0.1349640638E+00    0    0
  111    1   16   16    0    0    0.1226305842E+01   -0.6092646718E+00   -0.8617389798E+00    0.1623526573E+01    0.1349640042E+00    0    0
</event>
<event>
   20 9999    1    0.9119999695E+02    0.7565275169E-02    0.1185000000E+00
   11   -1    0    0    0    0    0.0000000000E+00    0.0000000000E+00    0.8000000000E+02    0.8000000000E+02    0.5109988851E-03    0    0
  -11   -1    0    0    0    0    0.0000000000E+00    0.0000000000E+00   -0.8000000000E+02    0.8000000000E+02    0.5109988851E-03    0    0
  -24    2    1    2    0    0    0.4120377064E+01   -0.8002387881E+00    0.9343747139E+01    0.7790855408E+02    0.7723223877E+02    0    0
   24    2    1    2    0    0   -0.4120617390E+01    0.8003358841E+00   -0.9420392036E+01    0.8201480103E+02    0.8136377716E+02    0    0
   22    1    1    2    0    0    0.2402720274E-03   -0.9708025027E-04    0.7664536685E-01    0.7664580643E-01    0.0000000000E+00    0    0
   15    2    3    3    0    0   -0.2752871704E+02    0.8718626976E+01    0.2716248131E+02    0.3968379211E+02    0.1777029991E+01    0    0
  -16    1    3    3    0    0    0.3161131668E+02   -0.9302495956E+01   -0.1830254173E+02    0.3769342804E+02    0.0000000000E+00    0    0
   22    1    3    3    0    0    0.3777851164E-01   -0.2163699865E+00    0.4838082194E+00    0.5313318968E+00    0.0000000000E+00    0    0
   16    1    4    4    0    0    0.5614016056E+00    0.3716885757E+02    0.1254596043E+02    0.3923315430E+02    0.0000000000E+00    0    0
  -15    2    4    4    0    0   -0.4682019234E+01   -0.3636852264E+02   -0.2196635246E+02    0.4278164673E+02    0.1777029991E+01    0    0
   16    1    6    6    0    0   -0.7033990860E+01    0.1890177488E+01    0.6939351559E+01    0.1006004143E+02    0.3432379744E-03    0    0
  -24    2    6    6    0    0   -0.2049583626E+02    0.6828800201E+01    0.2022422218E+02    0.2962535095E+02    0.1389280558E+01    0    0
  111    1   12   12    0    0   -0.2299523115E+01    0.7369784713E+00    0.1861401558E+01    0.3051881313E+01    0.1349641532E+00    0    0
  111    1   12   12    0    0   -0.1064995575E+02    0.3736575365E+01    0.1085406494E+02    0.1565926456E+02    0.1349640489E+00    0    0
 -321    1   12   12    0    0   -0.7546358585E+01    0.2355247021E+01    0.7508757591E+01    0.1091420650E+02    0.4936670661E+00    0    0
  -16    1   10   10    0    0   -0.1294783235E+01   -0.8872648239E+01   -0.5378414631E+01    0.1045598793E+02    0.5680057220E-03    0    0
   24    2   10   10    0    0   -0.3387419939E+01   -0.2749730492E+02   -0.1658880043E+02    0.3232733917E+02    0.1513994694E+01    0    0
  111    1   17   17    0    0   -0.6362018585E+00   -0.6728201866E+01   -0.3862846851E+01    0.7785451412E+01    0.1349641383E+00    0    0
  111    1   17   17    0    0   -0.2312030494E+00   -0.4571612358E+01   -0.3009613037E+01    0.5479879379E+01    0.1349644363E+00    0    0
  321    1   17   17    0    0   -0.2520015001E+01   -0.1619749069E+02   -0.9716341019E+01    0.1906200790E+02    0.4936670065E+00    0    0
</event>
<event>
   19 9999    1    0.9119999695E+02    0.7565275169E-02    0.1185000000E+00
   11   -1    0    0    0    0    0.0000000000E+00    0.0000000000E+00    0.8000000000E+02    0.8000000000E+02    0.5109988851E-03    0    0
  -11   -1    0    0    0    0    0.0000000000E+00    0.0000000000E+00   -0.8000000000E+02    0.8000000000E+02    0.5109988851E-03    0    0
  -24    2    1    2    0    0    0.4226832390E+00    0.2006464958E+02    0.2328277779E+02    0.8537306213E+02    0.7964736938E+02    0    0
   24    2    1    2    0    0   -0.4228814542E+00   -0.2006456375E+02   -0.2327097130E+02    0.7461512756E+02    0.6799347687E+02    0    0
   22    1    1    2    0    0    0.1982301910E-03   -0.8613703540E-04   -0.1180625055E-01    0.1180822961E-01    0.0000000000E+00    0    0
   15    2    3    3    0    0    0.3876942444E+02    0.1565862274E+02    0.2069528389E+02    0.4668740082E+02    0.1777029991E+01    0    0
  -16    1    3    3    0    0   -0.3834674072E+02    0.4406027317E+01    0.2587494135E+01    0.3868566513E+02    0.0000000000E+00    0    0
   16    1    4    4    0    0    0.1815012932E+02    0.1952092552E+02   -0.4657288074E+01    0.2705889893E+02    0.0000000000E+00    0    0
  -15    2    4    4    0    0   -0.1857300949E+02   -0.3958549118E+02   -0.1861368370E+02    0.4755622482E+02    0.1777029991E+01    0    0
   16    1    6    6    0    0    0.2362357140E+01    0.9799144864E+00    0.1606670141E+01    0.3020323277E+01    0.3112194536E-03    0    0
  -24    2    6    6    0    0    0.3640859222E+02    0.1467932510E+02    0.1908942795E+02    0.4366891479E+02    0.1224581242E+01    0    0
  111    1   11   11    0    0    0.5560054302E+01    0.2009257793E+01    0.2997235775E+01    0.6629703045E+01    0.1349635571E+00    0    0
  111    1   11   11    0    0    0.1034968758E+02    0.3965471745E+01    0.5461239338E+01    0.1235655117E+02    0.1349642426E+00    0    0
 -321    1   11   11    0    0    0.2049885368E+02    0.8704595566E+01    0.1063095284E+02    0.2468266296E+02    0.4936671257E+00    0    0
  -16    1    9    9    0    0   -0.2127407312E+01   -0.4725249290E+01   -0.2430608988E+01    0.5723783970E+01    0.5917578237E-03    0    0
   24    2    9    9    0    0   -0.1644633293E+02   -0.3486179733E+02   -0.1618380547E+02    0.4183431244E+02    0.1538639545E+01    0    0
  321    1   16   16    0    0   -0.4364827156E+01   -0.9906525612E+01   -0.4540615559E+01    0.1174954796E+02    0.4936670065E+00    0    0
  211    1   16   16    0    0   -0.3376392603E+01   -0.7030475616E+01   -0.2971754551E+01    0.8347359657E+01    0.1395677477E+00    0    0
 -321    1   16   16    0    0   -0.8705113411E+01   -0.1792479515E+02   -0.8671435356E+01    0.2173740387E+02    0.4936670363E+00    0    0
</event>
<event>
   21 9999    1    0.9119999695E+02    0.7565275169E-02    0.1185000000E+00
   11   -1    0    0    0    0    0.0000000000E+00    0.0000000000E+00    0.8000000000E+02    0.8000000000E+02    0.5109988851E-03    0    0
  -11   -1    0    0    0    0    0.0000000000E+00    0.0000000000E+00   -0.8000000000E+02    0.8000000000E+02    0.5109988851E-03    0    0
  -24    2    1    2    0    0   -0.8208256721E+01    0.3464053392E+01    0.1678267097E+02    0.8270768738E+02    0.8049552155E+02    0    0
   24    2    1    2    0    0    0.8208256721E+01   -0.3464053154E+01   -0.1678181076E+02    0.7729145050E+02    0.7491971588E+02    0    0
   22    1    1    2    0    0   -0.6633830907E-07   -0.9129114886E-07   -0.8604145260E-03    0.8604145260E-03    0.0000000000E+00    0    0
   15    2    3    3    0    0   -0.1154811001E+02    0.2122325134E+02    0.4388808441E+02    0.5013089752E+02    0.1777029991E+01    0    0
  -16    1    3    3    0    0    0.3339852571E+01   -0.1775919724E+02   -0.2710541344E+02    0.3257678986E+02    0.0000000000E+00    0    0
   16    1    4    4    0    0   -0.1957063293E+02    0.2686853218E+02   -0.1167922974E+01    0.3326096344E+02    0.0000000000E+00    0    0
  -15    2    4    4    0    0    0.2777889061E+02   -0.3033258629E+02   -0.1561388779E+02    0.4403048706E+02    0.1777029991E+01    0    0
   16    1    6    6    0    0   -0.7645912170E+00    0.1311451793E+01    0.2909010172E+01    0.3281287432E+01    0.2157918607E-04    0    0
  -24    2    6    6    0    0   -0.1078397274E+02    0.1991263390E+02    0.4098080063E+02    0.4685158157E+02    0.1684575319E+01    0    0
 -211    1   11   11    0    0   -0.7960441589E+01    0.1529711723E+02    0.3151410484E+02    0.3592393112E+02    0.1395676285E+00    0    0
 -211    1   11   11    0    0   -0.8800533414E+00    0.1441482425E+01    0.2831100702E+01    0.3299541712E+01    0.1395679861E+00    0    0
 -211    1   11   11    0    0   -0.4729497433E+00    0.9384071827E+00    0.1788419843E+01    0.2078993559E+01    0.1395679712E+00    0    0
  211    1   11   11    0    0   -0.1079370379E+01    0.1604633808E+01    0.3301944733E+01    0.3829126358E+01    0.1395679563E+00    0    0
  211    1   11   11    0    0   -0.3911577463E+00    0.6309927702E+00    0.1545232058E+01    0.1719993591E+01    0.1395680010E+00    0    0
  -16    1    9    9    0    0    0.3488853455E+01   -0.4184327126E+01   -0.1852054358E+01    0.5754198074E+01    0.3506202775E-03    0    0
   24    2    9    9    0    0    0.2429113007E+02   -0.2614945221E+02   -0.1376244736E+02    0.3827802277E+02    0.1396117806E+01    0    0
  321    1   18   18    0    0    0.7669276714E+01   -0.8714403152E+01   -0.4359519482E+01    0.1240998554E+02    0.4936670065E+00    0    0
  111    1   18   18    0    0    0.4806497097E+01   -0.4964061737E+01   -0.2590042353E+01    0.7380437374E+01    0.1349635720E+00    0    0
  130    1   18   18    0    0    0.1181535625E+02   -0.1247098827E+02   -0.6812885761E+01    0.1848759842E+02    0.4977200031E+00    0    0
</event>
<event>
   17 9999    1    0.9119999695E+02    0.7565275169E-02    0.1185000000E+00
   11   -1    0    0    0    0    0.0000000000E+00    0.0000000000E+00    0.8000000000E+02    0.8000000000E+02    0.5109988851E-03    0    0
  -11   -1    0    0    0    0    0.0000000000E+00    0.0000000000E+00   -0.8000000000E+02    0.8000000000E+02    0.5109988851E-03    0    0
  -24    2    1    2    0    0    0.1117011929E+02   -0.2120998001E+02   -0.1019469142E+01    0.7494906616E+02    0.7100484467E+02    0    0
   24    2    1    2    0    0   -0.1118682098E+02    0.2118502045E+02   -0.4411030710E+00    0.8358202362E+02    0.8007377625E+02    0    0
   22    1    1    2    0    0    0.1583337435E-02    0.1126845746E-03    0.1414012074E+01    0.1414012909E+01    0.0000000000E+00    0    0
   22    1    1    2    0    0    0.1511846296E-01    0.2484809421E-01    0.4656014964E-01    0.5489848182E-01    0.0000000000E+00    0    0
   15    2    3    3    0    0   -0.6402292252E+01   -0.4408578873E+02    0.6709118366E+01    0.4508565521E+02    0.1777029991E+01    0    0
  -16    1    3    3    0    0    0.1757241058E+02    0.2287580681E+02   -0.7728587151E+01    0.2986341095E+02    0.0000000000E+00    0    0
   16    1    4    4    0    0   -0.1580621147E+02   -0.2895203400E+02    0.2751144886E+01    0.3310023117E+02    0.0000000000E+00    0    0
  -15    2    4    4    0    0    0.4619390488E+01    0.5013705444E+02   -0.3192247868E+01    0.5048179245E+02    0.1777029991E+01    0    0
   16    1    7    7    0    0   -0.6449977875E+01   -0.4196419525E+02    0.6390256882E+01    0.4293519592E+02    0.7533423195E-04    0    0
 -211    1    7    7    0    0    0.4743320867E-01   -0.2123331308E+01    0.3191258609E+00    0.2152232885E+01    0.1395679414E+00    0    0
  -16    1   10   10    0    0    0.1322437171E-01    0.3937879503E+00   -0.8693154156E-01    0.4034865201E+00    0.6727724685E-03    0    0
   24    2   10   10    0    0    0.4606348038E+01    0.4974523544E+02   -0.3105441809E+01    0.5008028793E+02    0.1607651353E+01    0    0
  130    1   14   14    0    0    0.1800744414E+01    0.1723813820E+02   -0.7351437211E+00    0.1735466003E+02    0.4977199435E+00    0    0
  211    1   14   14    0    0    0.1312585235E+01    0.1426324272E+02   -0.1290565968E+01    0.1438221169E+02    0.1395682245E+00    0    0
  310    1   14   14    0    0    0.1493018031E+01    0.1824385643E+02   -0.1079732060E+01    0.1834341621E+02    0.4977200329E+00    0    0
</event>
<event>
   14 9999    1    0.9119999695E+02    0.7565275169E-02    0.1185000000E+00
   11   -1    0    0    0    0    0.0000000000E+00    0.0000000000E+00    0.8000000000E+02    0.8000000000E+02    0.5109988851E-03    0    0
  -11   -1    0    0    0    0    0.0000000000E+00    0.0000000000E+00   -0.8000000000E+02    0.8000000000E+02    0.5109988851E-03    0    0
  -24    2    1    2    0    0    0.1353464985E+02   -0.8165518045E+00    0.1503164577E+02    0.8820113373E+02    0.8584658813E+02    0    0
   24    2    1    2    0    0   -0.1353464985E+02    0.8165518045E+00   -0.1503164577E+02    0.7179886627E+02    0.6888594055E+02    0    0
   15    2    3    3    0    0    0.7175376892E+01   -0.1714933586E+02    0.4764626312E+02    0.5117528534E+02    0.1777029991E+01    0    0
  -16    1    3    3    0    0    0.6359273434E+01    0.1633278465E+02   -0.3261461639E+02    0.3702584839E+02    0.0000000000E+00    0    0
   16    1    4    4    0    0   -0.4032625580E+02    0.2884466887E+01   -0.1883541489E+02    0.4460157013E+02    0.0000000000E+00    0    0
  -15    2    4    4    0    0    0.2679160500E+02   -0.2067914963E+01    0.3803770304E+01    0.2719729614E+02    0.1777029991E+01    0    0
   16    1    5    5    0    0    0.3062273979E+01   -0.9101446152E+01    0.2507797050E+02    0.2685364914E+02    0.2553283703E-03    0    0
   11    1    5    5    0    0    0.2832858086E+01   -0.5337672710E+01    0.1417967033E+02    0.1541359425E+02    0.5822383100E-03    0    0
  -12    1    5    5    0    0    0.1280527115E+01   -0.2710891485E+01    0.8390498161E+01    0.8910058975E+01    0.8631674427E-04    0    0
  -16    1    8    8    0    0    0.4609198093E+01   -0.9050068259E+00    0.4474045634E+00    0.4718465328E+01    0.2660460887E-03    0    0
  -11    1    8    8    0    0    0.1053138256E+02   -0.3254745007E+00    0.1266165257E+01    0.1061221504E+02    0.5560567370E-03    0    0
   12    1    8    8    0    0    0.1165208149E+02   -0.8375152946E+00    0.2090350389E+01    0.1186768723E+02    0.1726334885E-03    0    0
</event>
<event>
   21 9999    1    0.9119999695E+02    0.7565275169E-02    0.1185000000E+00
   11   -1    0    0    0    0    0.0000000000E+00    0.0000000000E+00    0.8000000000E+02    0.8000000000E+02    0.5109988851E-03    0    0
  -11   -1    0    0    0    0    0.0000000000E+00    0.0000000000E+00   -0.8000000000E+02    0.8000000000E+02    0.5109988851E-03    0    0
  -24    2    1    2    0    0    0.3596020937E+01    0.1573945761E+01   -0.2074264765E+01    0.7942167664E+02    0.7929748535E+02    0    0
   24    2    1    2    0    0   -0.3720746756E+01   -0.1805796027E+01    0.2355820656E+01    0.8017112732E+02    0.8002971649E+02    0    0
   22    1    1    2    0    0    0.1221177429E+00    0.2289298326E+00   -0.2053578794E+00    0.3308979571E+00    0.0000000000E+00    0    0
   22    1    1    2    0    0    0.2608212410E-02    0.2920381026E-02   -0.7619785517E-01    0.7629839331E-01    0.0000000000E+00    0    0
   15    2    3    3    0    0   -0.1839879990E+02   -0.8656358719E+01   -0.3380002975E+02    0.3948478317E+02    0.1777029991E+01    0    0
  -16    1    3    3    0    0    0.2199482155E+02    0.1023030472E+02    0.3172576332E+02    0.3993689346E+02    0.0000000000E+00    0    0
   16    1    4    4    0    0   -0.5291609764E+01   -0.3690917969E+02    0.1811646843E+02    0.4145474243E+02    0.0000000000E+00    0    0
  -15    2    4    4    0    0    0.1436268568E+01    0.3421409607E+02   -0.1465382099E+02    0.3729019928E+02    0.1777029991E+01    0    0
   22    1    4    4    0    0    0.1345945597E+00    0.8892852068E+00   -0.1106827617E+01    0.1426187515E+01    0.0000000000E+00    0    0
   16    1    7    7    0    0   -0.5619696140E+01   -0.2574954271E+01   -0.1081159306E+02    0.1245399189E+02    0.0000000000E+00    0    0
  -24    2    7    7    0    0   -0.1277982903E+02   -0.6081745625E+01   -0.2298976707E+02    0.2703234863E+02    0.1380854964E+01    0    0
  111    1   13   13    0    0   -0.6695248127E+01   -0.3000413656E+01   -0.1194129562E+02    0.1401576138E+02    0.1349636763E+00    0    0
  111    1   13   13    0    0   -0.2778800011E+01   -0.1080978394E+01   -0.4635524750E+01    0.5513306618E+01    0.1349641681E+00    0    0
 -321    1   13   13    0    0   -0.3305780888E+01   -0.2000353575E+01   -0.6412948132E+01    0.7503280163E+01    0.4936670363E+00    0    0
  -16    1   10   10    0    0    0.8062009811E+00    0.1580437279E+02   -0.7118189812E+01    0.1735213661E+02    0.4228639591E-03    0    0
20213    2   10   10    0    0    0.6301238537E+00    0.1841106796E+02   -0.7536206245E+01    0.1993952560E+02    0.1194168329E+01    0    0
  211    1   18   18    0    0    0.3556008935E+00    0.5625994682E+01   -0.2572055101E+01    0.6197837830E+01    0.1395679414E+00    0    0
  211    1   18   18    0    0    0.4810731113E+00    0.6721005440E+01   -0.2801250458E+01    0.7298615932E+01    0.1395680308E+00    0    0
 -211    1   18   18    0    0   -0.2065500766E+00    0.6064069748E+01   -0.2162901163E+01    0.6443073273E+01    0.1395679563E+00    0    0
</event>
<event>
   17 9999    1    0.9119999695E+02    0.7565275169E-02    0.1185000000E+00
   11   -1    0    0    0    0    0.0000000000E+00    0.0000000000E+00    0.8000000000E+02    0.8000000000E+02    0.5109988851E-03    0    0
  -11   -1    0    0    0    0    0.0000000000E+00    0.0000000000E+00   -0.8000000000E+02    0.8000000000E+02    0.5109988851E-03    0    0
  -24    2    1    2    0    0   -0.1071066380E+01   -0.5842105389E+01    0.2910557985E+01    0.7924710846E+02    0.7897059631E+02    0    0
   24    2    1    2    0    0    0.1071066618E+01    0.5842105389E+01   -0.2910340786E+01    0.8075267792E+02    0.8048134613E+02    0    0
   22    1    1    2    0    0   -0.1581347107E-06   -0.3710668040E-07   -0.2172500099E-03    0.2172500681E-03    0.0000000000E+00    0    0
   15    2    3    3    0    0    0.4562414169E+01   -0.1093015480E+02    0.3981122208E+02    0.4157373047E+02    0.1777029991E+01    0    0
  -16    1    3    3    0    0   -0.5633480549E+01    0.5088049412E+01   -0.3690066147E+02    0.3767337799E+02    0.0000000000E+00    0    0
   16    1    4    4    0    0    0.4069778061E+02    0.5139058590E+01   -0.1991132855E+01    0.4106925964E+02    0.0000000000E+00    0    0
  -15    2    4    4    0    0   -0.3962671661E+02    0.7030469179E+00   -0.9192078114E+00    0.3968341827E+02    0.1777029991E+01    0    0
   16    1    6    6    0    0    0.2904026747E+01   -0.4914534092E+01    0.1819509697E+02    0.1906954575E+02    0.3452669771E-03    0    0
 -321    1    6    6    0    0    0.1658567190E+01   -0.6016051769E+01    0.2161769295E+02    0.2250582314E+02    0.4936670065E+00    0    0
  -16    1    9    9    0    0   -0.1424545002E+02    0.2110745460E+00    0.1286285650E-01    0.1424701977E+02    0.1930101134E-03    0    0
   24    2    9    9    0    0   -0.2538282585E+02    0.4920000732E+00   -0.9321068525E+00    0.2543795967E+02    0.1300427437E+01    0    0
  111    1   13   13    0    0   -0.3168745518E+01    0.1809202321E-01    0.6100776047E-01    0.3172256708E+01    0.1349631995E+00    0    0
  111    1   13   13    0    0   -0.5805873871E+01    0.3867797852E+00   -0.5631605387E+00    0.5847489834E+01    0.1349646747E+00    0    0
  111    1   13   13    0    0   -0.5346599102E+01   -0.7209227979E-01   -0.1059317738E+00    0.5349837303E+01    0.1349640042E+00    0    0
  211    1   13   13    0    0   -0.1106160736E+02    0.1592205763E+00   -0.3240222931E+00    0.1106837749E+02    0.1395680457E+00    0    0
</event>
<event>
   24 9999    1    0.9119999695E+02    0.7565275169E-02    0.1185000000E+00
   11   -1    0    0    0    0    0.0000000000E+00    0.0000000000E+00    0.8000000000E+02    0.8000000000E+02    0.5109988851E-03    0    0
  -11   -1    0    0    0    0    0.0000000000E+00    0.0000000000E+00   -0.8000000000E+02    0.8000000000E+02    0.5109988851E-03    0    0
  -24    2    1    2    0    0   -0.7606739044E+01   -0.1630768585E+02   -0.2290530205E+01    0.7567923737E+02    0.7347310638E+02    0    0
   24    2    1    2    0    0    0.7606730461E+01    0.1630767441E+02    0.2305083036E+01    0.8430620575E+02    0.8233116150E+02    0    0
   22    1    1    2    0    0    0.8691028597E-05    0.1156692178E-04   -0.1371083967E-01    0.1371084712E-01    0.0000000000E+00    0    0
   22    1    1    2    0    0   -0.3190357845E-07    0.2255490728E-07   -0.8419586811E-03    0.8419586811E-03    0.0000000000E+00    0    0
   15    2    3    3    0    0   -0.2068487358E+02   -0.2779514122E+02    0.2538251305E+02    0.4298678589E+02    0.1777029991E+01    0    0
  -16    1    3    3    0    0    0.1307813454E+02    0.1148745632E+02   -0.2767304230E+02    0.3269245529E+02    0.0000000000E+00    0    0
   16    1    4    4    0    0    0.2988916206E+02    0.2420927048E+01    0.3249910355E+02    0.4422006989E+02    0.0000000000E+00    0    0
  -15    2    4    4    0    0   -0.2066261482E+02    0.1271142864E+02   -0.2726260948E+02    0.3653672028E+02    0.1777029991E+01    0    0
   22    1    4    4    0    0   -0.1619815469E+01    0.1175318480E+01   -0.2931411743E+01    0.3549415588E+01    0.0000000000E+00    0    0
   16    1    7    7    0    0   -0.2668054819E+01   -0.3337143660E+01    0.3367202282E+01    0.5439953804E+01    0.6103515625E-04    0    0
  -24    2    7    7    0    0   -0.1801763344E+02   -0.2445909309E+02    0.2201630974E+02    0.3754852295E+02    0.1513750434E+01    0    0
 -211    1   13   13    0    0   -0.2108477592E+01   -0.2957976341E+01    0.2473116875E+01    0.4396713257E+01    0.1395680159E+00    0    0
 -211    1   13   13    0    0   -0.5829153538E+01   -0.7930615902E+01    0.7231025696E+01    0.1221396351E+02    0.1395679265E+00    0    0
 -211    1   13   13    0    0   -0.5344276428E+00   -0.7432513237E+00    0.5909505486E+00    0.1098515868E+01    0.1395679712E+00    0    0
  211    1   13   13    0    0   -0.6442889214E+01   -0.8557860374E+01    0.7892502308E+01    0.1330634689E+02    0.1395679414E+00    0    0
  211    1   13   13    0    0   -0.2519370794E+01   -0.3300554037E+01    0.3002276421E+01    0.5125819683E+01    0.1395679861E+00    0    0
  111    1   13   13    0    0   -0.5833146572E+00   -0.9688349366E+00    0.8264376521E+00    0.1407164335E+01    0.1349639744E+00    0    0
  -16    1   10   10    0    0   -0.5048776865E+00    0.4731610119E+00   -0.6874525547E+00    0.9753839374E+00    0.2446467406E-03    0    0
   24    2   10   10    0    0   -0.2015851212E+02    0.1223874378E+02   -0.2657617760E+02    0.3556270599E+02    0.1503392220E+01    0    0
  111    1   21   21    0    0   -0.5313064098E+01    0.3606996536E+01   -0.6936780930E+01    0.9453900337E+01    0.1349637210E+00    0    0
  111    1   21   21    0    0   -0.6207008362E+01    0.3760505676E+01   -0.7748738289E+01    0.1061741638E+02    0.1349642277E+00    0    0
  321    1   21   21    0    0   -0.8638441086E+01    0.4871243000E+01   -0.1189066219E+02    0.1549139309E+02    0.4936670661E+00    0    0
</event>
<event>
   19 9999    1    0.9119999695E+02    0.7565275169E-02    0.1185000000E+00
   11   -1    0    0    0    0    0.0000000000E+00    0.0000000000E+00    0.8000000000E+02    0.8000000000E+02    0.5109988851E-03    0    0
  -11   -1    0    0    0    0    0.0000000000E+00    0.0000000000E+00   -0.8000000000E+02    0.8000000000E+02    0.5109988851E-03    0    0
  -24    2    1    2    0    0    0.3713038445E+01   -0.1044381332E+02    0.3311400890E+01    0.8033155060E+02    0.7949423218E+02    0    0
   24    2    1    2    0    0   -0.3658576727E+01    0.1045137978E+02   -0.1075325489E+01    0.7742399597E+02    0.7662050629E+02    0    0
   22    1    1    2    0    0    0.6817473331E-03   -0.1338451257E-03   -0.2025757551E+01    0.2025757790E+01    0.0000000000E+00    0    0
   22    1    1    2    0    0   -0.5483806133E-01   -0.7403877564E-02   -0.1785294265E+00    0.1869084984E+00    0.0000000000E+00    0    0
   22    1    1    2    0    0   -0.1818632445E-03   -0.7253891090E-04   -0.1634333283E-01    0.1634450443E-01    0.0000000000E+00    0    0
   22    1    1    2    0    0   -0.1235745731E-03    0.4388879825E-04   -0.1544507220E-01    0.1544562913E-01    0.0000000000E+00    0    0
   15    2    3    3    0    0   -0.1342493725E+02   -0.1255062938E+01    0.3811232758E+02    0.4046617889E+02    0.1777029991E+01    0    0
  -16    1    3    3    0    0    0.1713797569E+02   -0.9188750267E+01   -0.3480092621E+02    0.3986537170E+02    0.0000000000E+00    0    0
   16    1    4    4    0    0   -0.8904453278E+01   -0.1844352913E+02   -0.2989621162E+02    0.3623860550E+02    0.0000000000E+00    0    0
  -15    2    4    4    0    0    0.5245876789E+01    0.2889490891E+02    0.2882088661E+02    0.4118539047E+02    0.1777029991E+01    0    0
   16    1    9    9    0    0   -0.1345267415E+01    0.1912306398E+00    0.3748760462E+01    0.3987420082E+01    0.3585003724E-03    0    0
  -24    2    9    9    0    0   -0.1208019829E+02   -0.1446342945E+01    0.3436506653E+02    0.3648035049E+02    0.1354608178E+01    0    0
 -321    1   14   14    0    0   -0.5657637119E+01   -0.8271986842E+00    0.1604455948E+02    0.1704009056E+02    0.4936670959E+00    0    0
 -211    1   14   14    0    0   -0.3208739758E+01   -0.5356311202E+00    0.8305665016E+01    0.8921124458E+01    0.1395679861E+00    0    0
  211    1   14   14    0    0   -0.3213821411E+01   -0.8351308107E-01    0.1001484203E+02    0.1051913261E+02    0.1395678967E+00    0    0
  -16    1   12   12    0    0    0.4491502762E+01    0.2181282806E+02    0.2132987213E+02    0.3083725739E+02    0.3662109375E-03    0    0
  321    1   12   12    0    0    0.7545807362E+00    0.7083220005E+01    0.7492149830E+01    0.1034975433E+02    0.4936670065E+00    0    0
</event>
<event>
   21 9999    1    0.9119999695E+02    0.7565275169E-02    0.1185000000E+00
   11   -1    0    0    0    0    0.0000000000E+00    0.0000000000E+00    0.8000000000E+02    0.8000000000E+02    0.5109988851E-03    0    0
  -11   -1    0    0    0    0    0.0000000000E+00    0.0000000000E+00   -0.8000000000E+02    0.8000000000E+02    0.5109988851E-03    0    0
  -24    2    1    2    0    0    0.2770762634E+02   -0.2428369713E+02    0.1553775406E+02    0.7048062897E+02    0.5804038620E+02    0    0
   24    2    1    2    0    0   -0.2770762634E+02    0.2428369713E+02   -0.1553775406E+02    0.8951937103E+02    0.8009297943E+02    0    0
   15    2    3    3    0    0    0.2587438011E+02   -0.2268541336E+02    0.3602444458E+02    0.4985007477E+02    0.1777029991E+01    0    0
  -16    1    3    3    0    0    0.1833246946E+01   -0.1598284364E+01   -0.2048668861E+02    0.2063055229E+02    0.0000000000E+00    0    0
   16    1    4    4    0    0   -0.3382831573E+02   -0.1562049770E+02    0.1363761711E+02    0.3967794800E+02    0.0000000000E+00    0    0
  -15    2    4    4    0    0    0.6120688438E+01    0.3990419769E+02   -0.2917537117E+02    0.4984142685E+02    0.1777029991E+01    0    0
   16    1    5    5    0    0    0.3971396446E+01   -0.3579738855E+01    0.5166258812E+01    0.7434833527E+01    0.2114319796E-03    0    0
  -24    2    5    5    0    0    0.2190400124E+02   -0.1910656738E+02    0.3085960197E+02    0.4241720200E+02    0.1434497595E+01    0    0
 -321    1   10   10    0    0    0.4115435600E+01   -0.3378767252E+01    0.5316084385E+01    0.7540380478E+01    0.4936671257E+00    0    0
 -211    1   10   10    0    0    0.1368612862E+02   -0.1203256702E+02    0.1962115860E+02    0.2677876282E+02    0.1395676881E+00    0    0
  211    1   10   10    0    0    0.4102438450E+01   -0.3695234299E+01    0.5922360420E+01    0.8098060608E+01    0.1395680010E+00    0    0
  -16    1    8    8    0    0    0.7254352421E-01    0.2188523561E+00   -0.2523345351E+00    0.3418064415E+00    0.8357583283E-04    0    0
   24    2    8    8    0    0    0.6048386097E+01    0.3968691635E+02   -0.2892418480E+02    0.4950158310E+02    0.1471053481E+01    0    0
  211    1   15   15    0    0    0.1398872018E+01    0.9178202629E+01   -0.6868763924E+01    0.1154970360E+02    0.1395679861E+00    0    0
  211    1   15   15    0    0    0.1687288046E+01    0.1027464771E+02   -0.7728266239E+01    0.1296768761E+02    0.1395680010E+00    0    0
  211    1   15   15    0    0    0.2556712329E+00    0.2066735268E+01   -0.1484385967E+01    0.2561180115E+01    0.1395679861E+00    0    0
 -211    1   15   15    0    0    0.1239273787E+01    0.8309060097E+01   -0.5674774647E+01    0.1013897610E+02    0.1395679563E+00    0    0
 -211    1   15   15    0    0    0.3563221395E+00    0.3335151911E+01   -0.2361322880E+01    0.4104330540E+01    0.1395680010E+00    0    0
  111    1   15   15    0    0    0.1110958695E+01    0.6523115635E+01   -0.4806671143E+01    0.8179704666E+01    0.1349639893E+00    0    0
</event>
<event>
   17 9999    1    0.9119999695E+02    0.7565275169E-02    0.1185000000E+00
   11   -1    0    0    0    0    0.0000000000E+00    0.0000000000E+00    0.8000000000E+02    0.8000000000E+02    0.5109988851E-03    0    0
  -11   -1    0    0    0    0    0.0000000000E+00    0.0000000000E+00   -0.8000000000E+02    0.8000000000E+02    0.5109988851E-03    0    0
  -24    2    1    2    0    0   -0.2996728420E+00    0.1445674038E+02   -0.2657999754E+01    0.8210963440E+02    0.8078267670E+02    0    0
   24    2    1    2    0    0    0.2996728420E+00   -0.1445674038E+02    0.2657999754E+01    0.7789036560E+02    0.7649023438E+02    0    0
   15    2    3    3    0    0   -0.1635109901E+02   -0.2648392487E+02   -0.1743345642E+02    0.3571890259E+02    0.1777029991E+01    0    0
  -16    1    3    3    0    0    0.1605142593E+02    0.4094066238E+02    0.1477545738E+02    0.4639073563E+02    0.0000000000E+00    0    0
   16    1    4    4    0    0    0.8073004723E+01   -0.4516855621E+02   -0.1375445843E+01    0.4590494537E+02    0.0000000000E+00    0    0
  -15    2    4    4    0    0   -0.7773332119E+01    0.3071181870E+02    0.4033445835E+01    0.3198541832E+02    0.1777029991E+01    0    0
   16    1    5    5    0    0   -0.2805310488E+01   -0.5172650814E+01   -0.3114258051E+01    0.6657679081E+01    0.1977765060E-03    0    0
  -24    2    5    5    0    0   -0.1354643250E+02   -0.2131231499E+02   -0.1431988525E+02    0.2906262970E+02    0.1362591743E+01    0    0
  111    1   10   10    0    0   -0.4838730097E+00   -0.7521256804E+00   -0.6704428196E+00    0.1125848532E+01    0.1349636465E+00    0    0
  111    1   10   10    0    0   -0.2614990950E+01   -0.4475631237E+01   -0.3108279467E+01    0.6045582294E+01    0.1349641681E+00    0    0
 -321    1   10   10    0    0   -0.1044756889E+02   -0.1608456039E+02   -0.1054116440E+02    0.2189119911E+02    0.4936670959E+00    0    0
  -16    1    8    8    0    0   -0.2252250671E+01    0.1011696720E+02    0.1537460685E+01    0.1047804546E+02    0.0000000000E+00    0    0
   24    2    8    8    0    0   -0.5521387577E+01    0.2059606171E+02    0.2496143818E+01    0.2150863266E+02    0.1306559563E+01    0    0
  321    1   15   15    0    0   -0.1395032048E+01    0.4793397427E+01    0.3603635430E+00    0.5029547215E+01    0.4936670065E+00    0    0
  310    1   15   15    0    0   -0.4126355648E+01    0.1580266380E+02    0.2135780334E+01    0.1647908592E+02    0.4977200329E+00    0    0
</event>
<event>
   18 9999    1    0.9119999695E+02    0.7565275169E-02    0.1185000000E+00
   11   -1    0    0    0    0    0.0000000000E+00    0.0000000000E+00    0.8000000000E+02    0.8000000000E+02    0.5109988851E-03    0    0
  -11   -1    0    0    0    0    0.0000000000E+00    0.0000000000E+00   -0.8000000000E+02    0.8000000000E+02    0.5109988851E-03    0    0
  -24    2    1    2    0    0    0.5944707245E-01    0.2337432623E+01   -0.1411388779E+02    0.8165412903E+02    0.8039109039E+02    0    0
   24    2    1    2    0    0   -0.5944707245E-01   -0.2337432623E+01    0.1411388779E+02    0.7834587097E+02    0.7702861023E+02    0    0
   15    2    3    3    0    0   -0.1922864532E+02   -0.2553732491E+02    0.1646508026E+02    0.3600211716E+02    0.1777029991E+01    0    0
  -16    1    3    3    0    0    0.1928809166E+02    0.2787475777E+02   -0.3057896805E+02    0.4565200806E+02    0.0000000000E+00    0    0
   16    1    4    4    0    0    0.1310384941E+02   -0.2259011269E+02    0.3682376862E+02    0.4514436722E+02    0.0000000000E+00    0    0
  -15    2    4    4    0    0   -0.1316329670E+02    0.2025267982E+02   -0.2270988274E+02    0.3320150757E+02    0.1777029991E+01    0    0
   16    1    5    5    0    0   -0.1074437618E+02   -0.1492072201E+02    0.9322129250E+01    0.2061483955E+02    0.4587798030E-03    0    0
  -24    2    5    5    0    0   -0.8485026360E+01   -0.1061760902E+02    0.7143599510E+01    0.1538869476E+02    0.1025487542E+01    0    0
  111    1   10   10    0    0   -0.9494165182E+00   -0.1146730065E+01    0.8053373694E+00    0.1697988510E+01    0.1349640638E+00    0    0
  111    1   10   10    0    0   -0.2620217800E+01   -0.3545221090E+01    0.2292754412E+01    0.4970822334E+01    0.1349640489E+00    0    0
  111    1   10   10    0    0   -0.1670338392E+01   -0.1620628238E+01    0.1174039841E+01    0.2610182285E+01    0.1349638104E+00    0    0
 -211    1   10   10    0    0   -0.3245054007E+01   -0.4305030346E+01    0.2871468067E+01    0.6109703064E+01    0.1395679861E+00    0    0
  -16    1    8    8    0    0   -0.2274019241E+01    0.2815665007E+01   -0.3054218769E+01    0.4735756397E+01    0.1726334885E-03    0    0
   24    2    8    8    0    0   -0.1088979435E+02    0.1743781090E+02   -0.1965655708E+02    0.2846705627E+02    0.1152452469E+01    0    0
  321    1   16   16    0    0   -0.5860049248E+01    0.9219813347E+01   -0.1005820751E+02    0.1485787296E+02    0.4936670363E+00    0    0
  310    1   16   16    0    0   -0.5029745102E+01    0.8217996597E+01   -0.9598348618E+01    0.1360918140E+02    0.4977199137E+00    0    0
</event>
<event>
   20 9999    1    0.9119999695E+02    0.7565275169E-02    0.1185000000E+00
   11   -1    0    0    0    0    0.0000000000E+00    0.0000000000E+00    0.8000000000E+02    0.8000000000E+02    0.5109988851E-03    0    0
  -11   -1    0    0    0    0    0.0000000000E+00    0.0000000000E+00   -0.8000000000E+02    0.8000000000E+02    0.5109988851E-03    0    0
  -24    2    1    2    0    0    0.1073359680E+02    0.5162672043E+01    0.1508168411E+02    0.8395626831E+02    0.8172719574E+02    0    0
   24    2    1    2    0    0   -0.1073357964E+02   -0.5162655830E+01   -0.1517562771E+02    0.7594979095E+02    0.7345888519E+02    0    0
   22    1    1    2    0    0   -0.1773562508E-04   -0.1629321923E-04    0.9394347668E-01    0.9394348413E-01    0.0000000000E+00    0    0
   15    2    3    3    0    0   -0.2716899681E+02   -0.1947601318E+02    0.1915071487E+02    0.3856652832E+02    0.1777029991E+01    0    0
  -16    1    3    3    0    0    0.3790259171E+02    0.2463868523E+02   -0.4069031239E+01    0.4538973999E+02    0.0000000000E+00    0    0
   16    1    4    4    0    0    0.1796265221E+02   -0.3086087799E+02   -0.9692099571E+01    0.3699983215E+02    0.0000000000E+00    0    0
  -15    2    4    4    0    0   -0.2869622993E+02    0.2569822311E+02   -0.5483528137E+01    0.3894995880E+02    0.1777029991E+01    0    0
   16    1    6    6    0    0   -0.1424713802E+02   -0.9439719200E+01    0.9572765350E+01    0.1958895302E+02    0.4315837286E-03    0    0
  -24    2    6    6    0    0   -0.1292292690E+02   -0.1003705978E+02    0.9578702927E+01    0.1897909355E+02    0.8425040841E+00    0    0
  111    1   11   11    0    0   -0.4016775131E+01   -0.3231563091E+01    0.2904516697E+01    0.5918776512E+01    0.1349639893E+00    0    0
  111    1   11   11    0    0   -0.2364174128E+01   -0.1887644410E+01    0.1928820372E+01    0.3590415478E+01    0.1349638402E+00    0    0
  111    1   11   11    0    0   -0.2647237301E+01   -0.2185794592E+01    0.1981098294E+01    0.3965920925E+01    0.1349640191E+00    0    0
 -211    1   11   11    0    0   -0.3894741774E+01   -0.2732059002E+01    0.2764268875E+01    0.5503982544E+01    0.1395680308E+00    0    0
  -16    1    9    9    0    0   -0.5456408978E+01    0.5102507114E+01   -0.1005515933E+01    0.7537840843E+01    0.3211603616E-03    0    0
   24    2    9    9    0    0   -0.2324095154E+02    0.2059672737E+02   -0.4478228092E+01    0.3141365242E+02    0.1547879338E+01    0    0
  211    1   17   17    0    0   -0.1411990833E+02    0.1208675575E+02   -0.2362192631E+01    0.1873661995E+02    0.1395679563E+00    0    0
  111    1   17   17    0    0   -0.1665616751E+01    0.1720936060E+01   -0.6693341732E+00    0.2490406275E+01    0.1349641234E+00    0    0
   22    1   17   17    0    0   -0.7455428600E+01    0.6789037228E+01   -0.1446701527E+01    0.1018662739E+02    0.1835816802E-03    0    0
</event>
<event>
   16 9999    1    0.9119999695E+02    0.7565275169E-02    0.1185000000E+00
   11   -1    0    0    0    0    0.0000000000E+00    0.0000000000E+00    0.8000000000E+02    0.8000000000E+02    0.5109988851E-03    0    0
  -11   -1    0    0    0    0    0.0000000000E+00    0.0000000000E+00   -0.8000000000E+02    0.8000000000E+02    0.5109988851E-03    0    0
  -24    2    1    2    0    0    0.1057349968E+02   -0.1424728394E+02    0.2163691711E+02    0.8424104309E+02    0.7945825195E+02    0    0
   24    2    1    2    0    0   -0.1098504543E+02    0.1398236179E+02   -0.2033157730E+02    0.7436487579E+02    0.6928624725E+02    0    0
   22    1    1    2    0    0    0.4115457535E+00    0.2649216056E+00   -0.1305340528E+01    0.1394082904E+01    0.0000000000E+00    0    0
   15    2    3    3    0    0   -0.2957272339E+02   -0.4678151608E+01    0.2967758179E+02    0.4219416809E+02    0.1777029991E+01    0    0
  -16    1    3    3    0    0    0.4014622116E+02   -0.9569131851E+01   -0.8040664673E+01    0.4204687500E+02    0.0000000000E+00    0    0
   16    1    4    4    0    0    0.1211787891E+02   -0.2380716133E+02   -0.3468669653E+01    0.2693799591E+02    0.0000000000E+00    0    0
  -15    2    4    4    0    0   -0.2310292435E+02    0.3778952408E+02   -0.1686290741E+02    0.4742687607E+02    0.1777029991E+01    0    0
   16    1    6    6    0    0   -0.2845441055E+02   -0.4597552776E+01    0.2810400581E+02    0.4025699997E+02    0.3112194536E-03    0    0
 -211    1    6    6    0    0   -0.1119478822E+01   -0.8078317344E-01    0.1574745297E+01    0.1938829660E+01    0.1395676136E+00    0    0
  -16    1    9    9    0    0   -0.2853673458E+01    0.4614734650E+01   -0.2302689552E+01    0.5894201279E+01    0.4272460938E-03    0    0
   24    2    9    9    0    0   -0.2025016022E+02    0.3317627716E+02   -0.1456088066E+02    0.4153454208E+02    0.1537750006E+01    0    0
  211    1   13   13    0    0   -0.6140609741E+01    0.1012091446E+02   -0.3812238932E+01    0.1243754959E+02    0.1395680606E+00    0    0
  130    1   13   13    0    0   -0.9478869438E+01    0.1530023098E+02   -0.7183046341E+01    0.1938530159E+02    0.4977200627E+00    0    0
  111    1   13   13    0    0   -0.4630681038E+01    0.7755131245E+01   -0.3565596104E+01    0.9711691856E+01    0.1349640489E+00    0    0
</event>
<event>
   22 9999    1    0.9119999695E+02    0.7565275169E-02    0.1185000000E+00
   11   -1    0    0    0    0    0.0000000000E+00    0.0000000000E+00    0.8000000000E+02    0.8000000000E+02    0.5109988851E-03    0    0
  -11   -1    0    0    0    0    0.0000000000E+00    0.0000000000E+00   -0.8000000000E+02    0.8000000000E+02    0.5109988851E-03    0    0
  -24    2    1    2    0    0    0.6517452717E+01   -0.4218534946E+01    0.1666152000E+02    0.8234352875E+02    0.8026566315E+02    0    0
   24    2    1    2    0    0   -0.6517457008E+01    0.4218536854E+01   -0.1659739685E+02    0.7759235382E+02    0.7539778137E+02    0    0
   22    1    1    2    0    0    0.4168713531E-05   -0.2210750836E-05   -0.6412478536E-01    0.6412478536E-01    0.0000000000E+00    0    0
   15    2    3    3    0    0    0.2703978157E+02   -0.3429378891E+02    0.1373972893E+02    0.4581649780E+02    0.1777029991E+01    0    0
  -16    1    3    3    0    0   -0.2052232742E+02    0.3007525253E+02    0.2921792269E+01    0.3652702713E+02    0.0000000000E+00    0    0
   16    1    4    4    0    0    0.1104271507E+02    0.3107580757E+02    0.1147667980E+02    0.3491935730E+02    0.0000000000E+00    0    0
  -15    2    4    4    0    0   -0.1756017113E+02   -0.2685727119E+02   -0.2807407570E+02    0.4267299271E+02    0.1777029991E+01    0    0
   16    1    6    6    0    0    0.3565853238E+00   -0.6009773016E+00    0.2591007054E+00    0.7452918291E+00    0.2582750167E-03    0    0
  -24    2    6    6    0    0    0.2668426132E+02   -0.3369416046E+02    0.1348116875E+02    0.4507301331E+02    0.1577413440E+01    0    0
 -211    1   11   11    0    0    0.6618572235E+01   -0.8083743095E+01    0.2960519552E+01    0.1085986042E+02    0.1395678222E+00    0    0
  310    1   11   11    0    0    0.8038777351E+01   -0.9960728645E+01    0.3768128157E+01    0.1335232449E+02    0.4977201521E+00    0    0
  111    1   11   11    0    0    0.1202690983E+02   -0.1564968777E+02    0.6752521038E+01    0.2086082458E+02    0.1349639595E+00    0    0
  -16    1    9    9    0    0   -0.1324738264E+01   -0.2366406918E+01   -0.2252241611E+01    0.3525252581E+01    0.3051757812E-04    0    0
   24    2    9    9    0    0   -0.1623612595E+02   -0.2449192238E+02   -0.2582294083E+02    0.3914942169E+02    0.1544940472E+01    0    0
  211    1   16   16    0    0   -0.1025166392E+01   -0.1607859850E+01   -0.1831232309E+01    0.2647464991E+01    0.1395680010E+00    0    0
  211    1   16   16    0    0   -0.1533496380E+01   -0.2501236439E+01   -0.2773441792E+01    0.4039709568E+01    0.1395680159E+00    0    0
 -211    1   16   16    0    0   -0.2572035313E+01   -0.4070576191E+01   -0.4286609650E+01    0.6448213577E+01    0.1395680159E+00    0    0
  111    1   16   16    0    0   -0.7826073647E+01   -0.1128099442E+02   -0.1150429821E+02    0.1791299438E+02    0.1349641979E+00    0    0
  111    1   16   16    0    0   -0.1196678996E+01   -0.1777222633E+01   -0.2027360916E+01    0.2952790022E+01    0.1349640042E+00    0    0
  111    1   16   16    0    0   -0.2082674980E+01   -0.3254033327E+01   -0.3399997473E+01    0.5148248672E+01    0.1349640042E+00    0    0
</event>
<event>
   19 9999    1    0.9119999695E+02    0.7565275169E-02    0.1185000000E+00
   11   -1    0    0    0    0    0.0000000000E+00    0.0000000000E+00    0.8000000000E+02    0.8000000000E+02    0.5109988851E-03    0    0
  -11   -1    0    0    0    0    0.0000000000E+00    0.0000000000E+00   -0.8000000000E+02    0.8000000000E+02    0.5109988851E-03    0    0
  -24    2    1    2    0    0    0.1645926476E+01   -0.1669457817E+02   -0.3796257734E+01    0.8179070282E+02    0.7996179962E+02    0    0
   24    2    1    2    0    0   -0.1645926595E+01    0.1669457817E+02    0.3795813322E+01    0.7820885468E+02    0.7629415894E+02    0    0
   22    1    1    2    0    0    0.1303593109E-06   -0.6569625555E-07    0.4443069920E-03    0.4443070211E-03    0.0000000000E+00    0    0
   15    2    3    3    0    0   -0.2077070236E+02    0.3290698051E+01    0.2993553543E+02    0.3662710571E+02    0.1777029991E+01    0    0
  -16    1    3    3    0    0    0.2241662788E+02   -0.1998527718E+02   -0.3373179245E+02    0.4516359711E+02    0.0000000000E+00    0    0
   16    1    4    4    0    0    0.2113285065E+02    0.3433661270E+02   -0.1581666088E+02    0.4331012726E+02    0.0000000000E+00    0    0
  -15    2    4    4    0    0   -0.2277877808E+02   -0.1764203453E+02    0.1961247444E+02    0.3489872742E+02    0.1777029991E+01    0    0
   16    1    6    6    0    0   -0.5194696426E+01    0.4632059038E+00    0.7478301048E+01    0.9117259026E+01    0.4380096507E-03    0    0
  -24    2    6    6    0    0   -0.1557682228E+02    0.2827621460E+01    0.2245841217E+02    0.2751128769E+02    0.1363014340E+01    0    0
 -211    1   11   11    0    0   -0.6157803059E+01    0.1013701320E+01    0.9573082924E+01    0.1142845249E+02    0.1395684928E+00    0    0
  111    1   11   11    0    0   -0.1988853455E+01    0.4708546698E+00    0.3247814894E+01    0.3839760303E+01    0.1349642277E+00    0    0
   22    1   11   11    0    0   -0.7430164814E+01    0.1343065381E+01    0.9637513161E+01    0.1224307251E+02    0.2441406250E-03    0    0
  -16    1    9    9    0    0   -0.9142937660E+01   -0.6625539303E+01    0.7778944492E+01    0.1371142101E+02    0.2263244096E-03    0    0
   24    2    9    9    0    0   -0.1363673592E+02   -0.1101718998E+02    0.1183430195E+02    0.2118867874E+02    0.1253141999E+01    0    0
  321    1   16   16    0    0   -0.8480618477E+01   -0.6525650978E+01    0.7596924782E+01    0.1313247776E+02    0.4936670661E+00    0    0
  211    1   16   16    0    0   -0.4206358910E+01   -0.3545748472E+01    0.3349381447E+01    0.6442330360E+01    0.1395688057E+00    0    0
 -211    1   16   16    0    0   -0.9497588873E+00   -0.9457900524E+00    0.8879949450E+00    0.1613869548E+01    0.1395680159E+00    0    0
</event>
<event>
   16 9999    1    0.9119999695E+02    0.7565275169E-02    0.1185000000E+00
   11   -1    0    0    0    0    0.0000000000E+00    0.0000000000E+00    0.8000000000E+02    0.8000000000E+02    0.5109988851E-03    0    0
  -11   -1    0    0    0    0    0.0000000000E+00    0.0000000000E+00   -0.8000000000E+02    0.8000000000E+02    0.5109988851E-03    0    0
  -24    2    1    2    0    0    0.1236261749E+02    0.2238247871E+01   -0.1877233267E+01    0.8325228119E+02    0.8227742004E+02    0    0
   24    2    1    2    0    0   -0.1236261749E+02   -0.2238247871E+01    0.1877233267E+01    0.7674771881E+02    0.7568913269E+02    0    0
   15    2    3    3    0    0    0.2471757126E+02   -0.3264750671E+02   -0.1549335957E+02    0.4381803513E+02    0.1777029991E+01    0    0
  -16    1    3    3    0    0   -0.1235495377E+02    0.3488575363E+02    0.1361612606E+02    0.3943424606E+02    0.0000000000E+00    0    0
   16    1    4    4    0    0   -0.2985606194E+02    0.2768078995E+02    0.8043579102E+01    0.4150072098E+02    0.0000000000E+00    0    0
  -15    2    4    4    0    0    0.1749344444E+02   -0.2991903687E+02   -0.6166346073E+01    0.3524700165E+02    0.1777029991E+01    0    0
   16    1    5    5    0    0    0.1260469627E+02   -0.1618762589E+02   -0.7536430836E+01    0.2185670090E+02    0.1495049946E-03    0    0
   13    1    5    5    0    0    0.6852811813E+01   -0.9191838264E+01   -0.5068972111E+01    0.1253621006E+02    0.1056593135E+00    0    0
  -14    1    5    5    0    0    0.5261036396E+01   -0.7269328117E+01   -0.2888566971E+01    0.9426847458E+01    0.1220703125E-03    0    0
  -16    1    8    8    0    0    0.1282155752E+01   -0.1680850506E+01   -0.3814558387E+00    0.2148183107E+01    0.6255313638E-03    0    0
   24    2    8    8    0    0    0.1621197701E+02   -0.2823936272E+02   -0.5785132408E+01    0.3310020447E+02    0.1365974545E+01    0    0
  321    1   13   13    0    0    0.8418680191E+01   -0.1470917892E+02   -0.3414739609E+01    0.1729561424E+02    0.4936670959E+00    0    0
  211    1   13   13    0    0    0.5035583973E+01   -0.8226783752E+01   -0.1441246390E+01    0.9753653526E+01    0.1395680159E+00    0    0
 -211    1   13   13    0    0    0.2757714510E+01   -0.5303402424E+01   -0.9291469455E+00    0.6050939083E+01    0.1395678818E+00    0    0
</event>
<event>
   21 9999    1    0.9119999695E+02    0.7565275169E-02    0.1185000000E+00
   11   -1    0    0    0    0    0.0000000000E+00    0.0000000000E+00    0.8000000000E+02    0.8000000000E+02    0.5109988851E-03    0    0
  -11   -1    0    0    0    0    0.0000000000E+00    0.0000000000E+00   -0.8000000000E+02    0.8000000000E+02    0.5109988851E-03    0    0
  -24    2    1    2    0    0   -0.4759748459E+01    0.3301137090E+00   -0.1026487923E+02    0.8001266479E+02    0.7920792389E+02    0    0
   24    2    1    2    0    0    0.4759428024E+01   -0.3302963078E+00    0.1022102070E+02    0.7994347382E+02    0.7914372253E+02    0    0
   22    1    1    2    0    0    0.3202157968E-03    0.1825859799E-03    0.4385862872E-01    0.4386017844E-01    0.0000000000E+00    0    0
   15    2    3    3    0    0   -0.3440541458E+02   -0.1634764671E+02   -0.2200737572E+02    0.4402795410E+02    0.1777029991E+01    0    0
  -16    1    3    3    0    0    0.2964566803E+02    0.1667775917E+02    0.1174249744E+02    0.3598471069E+02    0.0000000000E+00    0    0
   16    1    4    4    0    0   -0.1913318253E+02   -0.2495343018E+02   -0.1733125877E+02    0.3590438461E+02    0.0000000000E+00    0    0
  -15    2    4    4    0    0    0.2389261055E+02    0.2462313271E+02    0.2755227852E+02    0.4403908920E+02    0.1777029991E+01    0    0
   16    1    6    6    0    0   -0.1682025641E+00   -0.1515557617E-01   -0.1002263278E+00    0.1963856071E+00    0.4453771398E-03    0    0
  -24    2    6    6    0    0   -0.3423856735E+02   -0.1633313370E+02   -0.2190801620E+02    0.4383330154E+02    0.1531747580E+01    0    0
  310    1   11   11    0    0   -0.1620229530E+02   -0.7970857620E+01   -0.1013127995E+02    0.2071085548E+02    0.4977199435E+00    0    0
 -211    1   11   11    0    0   -0.4842890263E+01   -0.1975005627E+01   -0.3084162951E+01    0.6073365688E+01    0.1395676881E+00    0    0
  310    1   11   11    0    0   -0.1319338322E+02   -0.6387270927E+01   -0.8692573547E+01    0.1704907990E+02    0.4977199435E+00    0    0
  -16    1    9    9    0    0    0.3543287992E+01    0.3932112217E+01    0.3778034925E+01    0.6503071785E+01    0.0000000000E+00    0    0
   24    2    9    9    0    0    0.2035026360E+02    0.2069198990E+02    0.2377532959E+02    0.3753775024E+02    0.1234857917E+01    0    0
  211    1   16   16    0    0    0.2934152126E+01    0.3184165239E+01    0.3835345507E+01    0.5785975456E+01    0.1395679861E+00    0    0
  211    1   16   16    0    0    0.2364969015E+01    0.2461103201E+01    0.2713292599E+01    0.4362515926E+01    0.1395680159E+00    0    0
  211    1   16   16    0    0    0.2621269226E+01    0.2529057264E+01    0.3059098482E+01    0.4758649349E+01    0.1395680308E+00    0    0
 -211    1   16   16    0    0    0.2203330517E+01    0.2057240486E+01    0.2406205654E+01    0.3859560728E+01    0.1395679861E+00    0    0
 -211    1   16   16    0    0    0.1022654247E+02    0.1046042442E+02    0.1176138687E+02    0.1877105141E+02    0.1395680159E+00    0    0
</event>
<event>
   20 9999    1    0.9119999695E+02    0.7565275169E-02    0.1185000000E+00
   11   -1    0    0    0    0    0.0000000000E+00    0.0000000000E+00    0.8000000000E+02    0.8000000000E+02    0.5109988851E-03    0    0
  -11   -1    0    0    0    0    0.0000000000E+00    0.0000000000E+00   -0.8000000000E+02    0.8000000000E+02    0.5109988851E-03    0    0
  -24    2    1    2    0    0    0.6010307312E+01    0.2455119848E+01    0.1616839981E+02    0.7964115143E+02    0.7771193695E+02    0    0
   24    2    1    2    0    0   -0.6010308266E+01   -0.2454945087E+01   -0.1599805546E+02    0.8018691254E+02    0.7830614471E+02    0    0
   22    1    1    2    0    0    0.6417978875E-04    0.7782711327E-04   -0.1703459322E+00    0.1703459620E+00    0.0000000000E+00    0    0
   22    1    1    2    0    0   -0.6533658598E-04   -0.2518148394E-03    0.7722828304E-03    0.8149234927E-03    0.0000000000E+00    0    0
   22    1    1    2    0    0    0.1903747943E-05   -0.9284432849E-06   -0.7712619845E-03    0.7712648949E-03    0.0000000000E+00    0    0
   15    2    3    3    0    0    0.1669597244E+02    0.3004466438E+02    0.3120037842E+02    0.4645491028E+02    0.1777029991E+01    0    0
  -16    1    3    3    0    0   -0.1068566418E+02   -0.2758954430E+02   -0.1503197861E+02    0.3318624115E+02    0.0000000000E+00    0    0
   16    1    4    4    0    0    0.1130856133E+02    0.2226646233E+02    0.2084153748E+02    0.3252766037E+02    0.0000000000E+00    0    0
  -15    2    4    4    0    0   -0.1731886864E+02   -0.2472140694E+02   -0.3683959198E+02    0.4765925598E+02    0.1777029991E+01    0    0
   16    1    8    8    0    0    0.4752553463E+01    0.8880352020E+01    0.9533649445E+01    0.1386859417E+02    0.6401421269E-03    0    0
  -24    2    8    8    0    0    0.1194407463E+02    0.2116549301E+02    0.2166795540E+02    0.3258814240E+02    0.1359335065E+01    0    0
 -211    1   13   13    0    0    0.4592440605E+01    0.8734085083E+01    0.8433001518E+01    0.1298113060E+02    0.1395680606E+00    0    0
  111    1   13   13    0    0    0.7261844635E+01    0.1203747845E+02    0.1293091869E+02    0.1910136604E+02    0.1349642128E+00    0    0
   22    1   13   13    0    0    0.8978987485E-01    0.3939294517E+00    0.3040353060E+00    0.5056482553E+00    0.2276067244E-03    0    0
  -16    1   11   11    0    0   -0.4242633879E+00   -0.6113306284E+00   -0.1276617527E+01    0.1477659225E+01    0.6103515625E-04    0    0
   24    2   11   11    0    0   -0.1689528656E+02   -0.2411104965E+02   -0.3556442261E+02    0.4618347168E+02    0.1136354327E+01    0    0
  321    1   18   18    0    0   -0.8712958336E+01   -0.1263462543E+02   -0.1893188858E+02    0.2437641335E+02    0.4936670065E+00    0    0
  310    1   18   18    0    0   -0.8182327271E+01   -0.1147642231E+02   -0.1663253212E+02    0.2180705452E+02    0.4977201521E+00    0    0
</event>
<event>
   17 9999    1    0.9119999695E+02    0.7565275169E-02    0.1185000000E+00
   11   -1    0    0    0    0    0.0000000000E+00    0.0000000000E+00    0.8000000000E+02    0.8000000000E+02    0.5109988851E-03    0    0
  -11   -1    0    0    0    0    0.0000000000E+00    0.0000000000E+00   -0.8000000000E+02    0.8000000000E+02    0.5109988851E-03    0    0
  -24    2    1    2    0    0    0.9148863792E+01   -0.1122729015E+02    0.3856790543E+01    0.8177313232E+02    0.8038790894E+02    0    0
   24    2    1    2    0    0   -0.9148863792E+01    0.1122729015E+02   -0.3856790543E+01    0.7822686768E+02    0.7677769470E+02    0    0
   15    2    3    3    0    0    0.3575763702E+02   -0.1412313652E+02    0.2648886490E+02    0.4672140121E+02    0.1777029991E+01    0    0
  -16    1    3    3    0    0   -0.2660877419E+02    0.2895845890E+01   -0.2263207436E+02    0.3505172729E+02    0.0000000000E+00    0    0
   16    1    4    4    0    0   -0.4060050964E+02    0.4258721352E+01   -0.1587005329E+02    0.4379950714E+02    0.0000000000E+00    0    0
  -15    2    4    4    0    0    0.3145164680E+02    0.6968569279E+01    0.1201326275E+02    0.3442736435E+02    0.1777029991E+01    0    0
   16    1    5    5    0    0    0.1331327915E+02   -0.4539265156E+01    0.9635847092E+01    0.1704986382E+02    0.1181940752E-03    0    0
 -323    2    5    5    0    0    0.2244576645E+02   -0.9584426880E+01    0.1685405922E+02    0.2967337608E+02    0.8810703158E+00    0    0
 -211    1   10   10    0    0    0.1116509056E+02   -0.4639338017E+01    0.8610917091E+01    0.1484419346E+02    0.1395681351E+00    0    0
  130    1   10   10    0    0    0.1128067303E+02   -0.4945087910E+01    0.8243141174E+01    0.1482918072E+02    0.4977199435E+00    0    0
  -16    1    8    8    0    0    0.3571852446E+00    0.3153768554E-01    0.3410634026E-01    0.3601936996E+00    0.5709315883E-03    0    0
   24    2    8    8    0    0    0.3109569931E+02    0.6937305927E+01    0.1197962952E+02    0.3406852341E+02    0.1443652987E+01    0    0
  321    1   14   14    0    0    0.1663267326E+02    0.3449733734E+01    0.6071390152E+01    0.1804582977E+02    0.4936670065E+00    0    0
  111    1   14   14    0    0    0.5811060905E+01    0.1333128572E+01    0.2358657837E+01    0.6413044930E+01    0.1349640340E+00    0    0
  310    1   14   14    0    0    0.8651965141E+01    0.2154443741E+01    0.3549581528E+01    0.9609650612E+01    0.4977200627E+00    0    0
</event>
<event>
   18 9999    1    0.9119999695E+02    0.7565275169E-02    0.1185000000E+00
   11   -1    0    0    0    0    0.0000000000E+00    0.0000000000E+00    0.8000000000E+02    0.8000000000E+02    0.5109988851E-03    0    0
  -11   -1    0    0    0    0    0.0000000000E+00    0.0000000000E+00   -0.8000000000E+02    0.8000000000E+02    0.5109988851E-03    0    0
  -24    2    1    2    0    0   -0.2872107506E+01   -0.3947634935E+01   -0.3171036243E+01    0.7988940430E+02    0.7967703247E+02    0    0
   24    2    1    2    0    0    0.2872107506E+01    0.3947634935E+01    0.3160673141E+01    0.8010022736E+02    0.7988882446E+02    0    0
   22    1    1    2    0    0   -0.1675139032E-06   -0.2228894118E-06    0.1036309358E-01    0.1036309358E-01    0.0000000000E+00    0    0
   15    2    3    3    0    0    0.1825126076E+02   -0.3651475906E+02    0.8050732613E+00    0.4086859512E+02    0.1777029991E+01    0    0
  -16    1    3    3    0    0   -0.2112336731E+02    0.3256712341E+02   -0.3976109505E+01    0.3902080917E+02    0.0000000000E+00    0    0
   16    1    4    4    0    0    0.3719215393E+02   -0.1812467575E+01   -0.1577752495E+02    0.4044096375E+02    0.0000000000E+00    0    0
  -15    2    4    4    0    0   -0.3432004547E+02    0.5760102749E+01    0.1893819809E+02    0.3965926743E+02    0.1777029991E+01    0    0
   16    1    6    6    0    0    0.7213081121E+00   -0.1841052413E+01    0.8219112456E-01    0.1979018688E+01    0.3639789065E-03    0    0
  -24    2    6    6    0    0    0.1753067017E+02   -0.3467514420E+02    0.7229138613E+00    0.3889118576E+02    0.1520426989E+01    0    0
 -211    1   11   11    0    0    0.9859301567E+01   -0.2060443115E+02    0.4504721463E+00    0.2284668159E+02    0.1395678222E+00    0    0
  310    1   11   11    0    0    0.4699229717E+01   -0.8825264931E+01    0.8589781076E-01    0.1001115131E+02    0.4977201819E+00    0    0
  111    1   11   11    0    0    0.2972136974E+01   -0.5245445728E+01    0.1865438223E+00    0.6033349991E+01    0.1349639446E+00    0    0
  -16    1    9    9    0    0   -0.1422057152E+02    0.1994625688E+01    0.7811697960E+01    0.1634704208E+02    0.1520385413E-03    0    0
  213    2    9    9    0    0   -0.2010082436E+02    0.3765703440E+01    0.1112724495E+02    0.2331378555E+02    0.1222013712E+01    0    0
  211    1   16   16    0    0   -0.1368137074E+02    0.3094193935E+01    0.7419021606E+01    0.1586868954E+02    0.1395677328E+00    0    0
  111    1   16   16    0    0   -0.6419454098E+01    0.6715097427E+00    0.3708224058E+01    0.7445096016E+01    0.1349638402E+00    0    0
</event>
<event>
   19 9999    1    0.9119999695E+02    0.7565275169E-02    0.1185000000E+00
   11   -1    0    0    0    0    0.0000000000E+00    0.0000000000E+00    0.8000000000E+02    0.8000000000E+02    0.5109988851E-03    0    0
  -11   -1    0    0    0    0    0.0000000000E+00    0.0000000000E+00   -0.8000000000E+02    0.8000000000E+02    0.5109988851E-03    0    0
  -24    2    1    2    0    0    0.2656376600E+01    0.9215580940E+01    0.8693326950E+01    0.8048117065E+02    0.7943338013E+02    0    0
   24    2    1    2    0    0   -0.2656376600E+01   -0.9215580940E+01   -0.8694110870E+01    0.7951804352E+02    0.7845729828E+02    0    0
   22    1    1    2    0    0   -0.1537999239E-07   -0.2324535409E-07    0.7846275112E-03    0.7846275112E-03    0.0000000000E+00    0    0
   15    2    3    3    0    0   -0.2602891731E+02   -0.2419648170E+02   -0.6176170334E-01    0.3558280182E+02    0.1777029991E+01    0    0
  -16    1    3    3    0    0    0.2868529510E+02    0.3341206360E+02    0.8755088806E+01    0.4489836884E+02    0.0000000000E+00    0    0
   16    1    4    4    0    0    0.1655146217E+02   -0.2728830528E+02    0.2218616867E+02    0.3886937714E+02    0.0000000000E+00    0    0
  -15    2    4    4    0    0   -0.1920783997E+02    0.1807272339E+02   -0.3088027954E+02    0.4064866257E+02    0.1777029991E+01    0    0
   16    1    6    6    0    0   -0.2153439045E+01   -0.2394486427E+01    0.1564892828E+00    0.3224182606E+01    0.2729575208E-03    0    0
  -24    2    6    6    0    0   -0.2387650490E+02   -0.2180294800E+02   -0.2182534188E+00    0.3236002350E+02    0.1291296244E+01    0    0
  111    1   11   11    0    0   -0.7087071896E+01   -0.6678812027E+01   -0.3260284364E+00    0.9744620323E+01    0.1349640340E+00    0    0
  111    1   11   11    0    0   -0.3182915688E+01   -0.3190422535E+01    0.1218448654E+00    0.4510300159E+01    0.1349638849E+00    0    0
 -321    1   11   11    0    0   -0.1360651779E+02   -0.1193371391E+02   -0.1406982914E-01    0.1810510254E+02    0.4936669767E+00    0    0
  -16    1    9    9    0    0   -0.6466001034E+01    0.5950544357E+01   -0.1009937954E+02    0.1338714314E+02    0.2283726499E-03    0    0
   24    2    9    9    0    0   -0.1274259472E+02    0.1212289143E+02   -0.2078211594E+02    0.2726312256E+02    0.1429422975E+01    0    0
  221    1   16   16    0    0   -0.6549571514E+01    0.6134235859E+01   -0.1014891243E+02    0.1355829430E+02    0.5487999916E+00    0    0
  211    1   16   16    0    0   -0.7689821124E+00    0.5606464148E+00   -0.9894994497E+00    0.1379944324E+01    0.1395678967E+00    0    0
  111    1   16   16    0    0   -0.5424041748E+01    0.5428009987E+01   -0.9643705368E+01    0.1232488537E+02    0.1349643469E+00    0    0
</event>
<event>
   24 9999    1    0.9119999695E+02    0.7565275169E-02    0.1185000000E+00
   11   -1    0    0    0    0    0.0000000000E+00    0.0000000000E+00    0.8000000000E+02    0.8000000000E+02    0.5109988851E-03    0    0
  -11   -1    0    0    0    0    0.0000000000E+00    0.0000000000E+00   -0.8000000000E+02    0.8000000000E+02    0.5109988851E-03    0    0
  -24    2    1    2    0    0    0.2063193893E+02   -0.1946672440E+02    0.9545557022E+01    0.8751603699E+02    0.8223933411E+02    0    0
   24    2    1    2    0    0   -0.2063193893E+02    0.1946672440E+02   -0.9545557022E+01    0.7248396301E+02    0.6601649475E+02    0    0
   15    2    3    3    0    0    0.3552445602E+02   -0.4467747879E+02    0.1117353535E+02    0.5818994522E+02    0.1777029991E+01    0    0
  -16    1    3    3    0    0   -0.1489251614E+02    0.2521075630E+02   -0.1627977729E+01    0.2932608986E+02    0.0000000000E+00    0    0
   16    1    4    4    0    0    0.2214326859E+02   -0.4621498108E+01   -0.4867857456E+01    0.2313825035E+02    0.0000000000E+00    0    0
  -15    2    4    4    0    0   -0.4277520752E+02    0.2408822250E+02   -0.4677699566E+01    0.4934571457E+02    0.1777029991E+01    0    0
   16    1    5    5    0    0    0.4292045116E+01   -0.5391378880E+01    0.1135848284E+01    0.6984179974E+01    0.6103515625E-04    0    0
  -24    2    5    5    0    0    0.3123380852E+02   -0.3928786087E+02    0.1003812695E+02    0.5120805740E+02    0.1553834677E+01    0    0
 -211    1   10   10    0    0    0.5534284115E+01   -0.6769695282E+01    0.1463761330E+01    0.8866744041E+01    0.1395680010E+00    0    0
 -211    1   10   10    0    0    0.5056264400E+01   -0.6193769455E+01    0.1720601678E+01    0.8179763794E+01    0.1395680159E+00    0    0
  211    1   10   10    0    0    0.4821130753E+01   -0.5879889011E+01    0.1396637321E+01    0.7732171535E+01    0.1395680159E+00    0    0
  111    1   10   10    0    0    0.3780689478E+01   -0.5125975609E+01    0.1251287580E+01    0.6492547512E+01    0.1349640191E+00    0    0
  111    1   10   10    0    0    0.6353656292E+01   -0.7969627380E+01    0.2304483652E+01    0.1045049095E+02    0.1349640936E+00    0    0
  111    1   10   10    0    0    0.5687783718E+01   -0.7348904610E+01    0.1901355386E+01    0.9486339569E+01    0.1349640042E+00    0    0
  -16    1    8    8    0    0   -0.3809308529E+01    0.2273663044E+01   -0.6016221046E+00    0.4476865292E+01    0.6103515625E-04    0    0
   24    2    8    8    0    0   -0.3896757889E+02    0.2181550598E+02   -0.4076261520E+01    0.4487078857E+02    0.1543744326E+01    0    0
  211    1   18   18    0    0   -0.6556969285E+00    0.4341920912E+00   -0.7790260762E-01    0.8025018573E+00    0.1395679563E+00    0    0
  211    1   18   18    0    0   -0.9645540237E+01    0.5483932972E+01   -0.1109622717E+01    0.1115171337E+02    0.1395679861E+00    0    0
  211    1   18   18    0    0   -0.6855200768E+01    0.3798874378E+01   -0.7247677445E+00    0.7872102261E+01    0.1395679861E+00    0    0
 -211    1   18   18    0    0   -0.5037029266E+01    0.3023834229E+01   -0.4976388514E+00    0.5897657394E+01    0.1395679563E+00    0    0
 -211    1   18   18    0    0   -0.7214739799E+01    0.3857385397E+01   -0.7839953899E+00    0.8219855309E+01    0.1395679712E+00    0    0
  111    1   18   18    0    0   -0.9559371948E+01    0.5217286587E+01   -0.8823339343E+00    0.1092695808E+02    0.1349639148E+00    0    0
</event>
<event>
   19 9999    1    0.9119999695E+02    0.7565275169E-02    0.1185000000E+00
   11   -1    0    0    0    0    0.0000000000E+00    0.0000000000E+00    0.8000000000E+02    0.8000000000E+02    0.5109988851E-03    0    0
  -11   -1    0    0    0    0    0.0000000000E+00    0.0000000000E+00   -0.8000000000E+02    0.8000000000E+02    0.5109988851E-03    0    0
  -24    2    1    2    0    0    0.1112698746E+02    0.4452902985E+02    0.2184624290E+02    0.6255922699E+02    0.3646579361E+02    0    0
   24    2    1    2    0    0   -0.1156571674E+02   -0.4416009903E+02   -0.2009339905E+02    0.9554834747E+02    0.8149761200E+02    0    0
   22    1    1    2    0    0    0.4392390549E+00   -0.3692753315E+00   -0.1776228905E+01    0.1866623878E+01    0.0000000000E+00    0    0
   22    1    1    2    0    0   -0.1805420470E-04    0.2376956108E-03    0.2454256825E-01    0.2454372682E-01    0.0000000000E+00    0    0
   22    1    1    2    0    0   -0.4912144504E-03    0.1069979262E-03   -0.1158928149E-02    0.1263271435E-02    0.0000000000E+00    0    0
   15    2    3    3    0    0    0.2427092934E+02    0.3380489349E+02    0.1583755207E+02    0.4456270599E+02    0.1777029991E+01    0    0
  -16    1    3    3    0    0   -0.1314394283E+02    0.1072413445E+02    0.6008691788E+01    0.1799651909E+02    0.0000000000E+00    0    0
   16    1    4    4    0    0    0.2371914673E+02   -0.1469698524E+02    0.2015718269E+02    0.3442253876E+02    0.0000000000E+00    0    0
  -15    2    4    4    0    0   -0.3528486252E+02   -0.2946311378E+02   -0.4025058365E+02    0.6112580490E+02    0.1777029991E+01    0    0
   16    1    8    8    0    0    0.9265334129E+01    0.1165422058E+02    0.5684301376E+01    0.1593670464E+02    0.1930101134E-03    0    0
 -213    2    8    8    0    0    0.1500654984E+02    0.2215200233E+02    0.1015387344E+02    0.2862775421E+02    0.7344198227E+00    0    0
 -211    1   13   13    0    0    0.3482290745E+01    0.4675974846E+01    0.2286821365E+01    0.6264193535E+01    0.1395680457E+00    0    0
  111    1   13   13    0    0    0.1152425957E+02    0.1747602844E+02    0.7867052078E+01    0.2236356163E+02    0.1349638700E+00    0    0
  -16    1   11   11    0    0   -0.2033783150E+02   -0.1717249870E+02   -0.2246963882E+02    0.3483398819E+02    0.1726334885E-03    0    0
  213    2   11   11    0    0   -0.1494841957E+02   -0.1229177380E+02   -0.1778252792E+02    0.2629421997E+02    0.7904086709E+00    0    0
  211    1   17   17    0    0   -0.7599616051E+01   -0.6646137238E+01   -0.8990142822E+01    0.1351915169E+02    0.1395679861E+00    0    0
  111    1   17   17    0    0   -0.7348804474E+01   -0.5645637512E+01   -0.8792385101E+01    0.1277507019E+02    0.1349639744E+00    0    0
</event>
<event>
   21 9999    1    0.9119999695E+02    0.7565275169E-02    0.1185000000E+00
   11   -1    0    0    0    0    0.0000000000E+00    0.0000000000E+00    0.8000000000E+02    0.8000000000E+02    0.5109988851E-03    0    0
  -11   -1    0    0    0    0    0.0000000000E+00    0.0000000000E+00   -0.8000000000E+02    0.8000000000E+02    0.5109988851E-03    0    0
  -24    2    1    2    0    0   -0.1172819996E+02   -0.4846127510E+01   -0.3801880121E+01    0.8083131409E+02    0.7973839569E+02    0    0
   24    2    1    2    0    0    0.1172815323E+02    0.4846230030E+01    0.3631187677E+01    0.7899798584E+02    0.7788748932E+02    0    0
   22    1    1    2    0    0    0.4489878847E-04   -0.9546388173E-04    0.1706905961E+00    0.1706906259E+00    0.0000000000E+00    0    0
   15    2    3    3    0    0    0.3352981186E+02   -0.9700363159E+01    0.1646674275E+01    0.3498878098E+02    0.1777029991E+01    0    0
  -16    1    3    3    0    0   -0.4525801468E+02    0.4854235649E+01   -0.5448554516E+01    0.4584253693E+02    0.0000000000E+00    0    0
   16    1    4    4    0    0    0.4501979828E+02   -0.1998888515E-01    0.4873248100E+01    0.4528279114E+02    0.0000000000E+00    0    0
  -15    2    4    4    0    0   -0.3329164505E+02    0.4866219044E+01   -0.1242060542E+01    0.3371519470E+02    0.1777029991E+01    0    0
   16    1    6    6    0    0    0.2828903437E+01   -0.7259113193E+00   -0.9688810259E-01    0.2922161818E+01    0.4648299073E-03    0    0
  -24    2    6    6    0    0    0.3070222855E+02   -0.8974833488E+01    0.1743627191E+01    0.3206799698E+02    0.1463426232E+01    0    0
 -211    1   11   11    0    0    0.1340719461E+01   -0.5652104616E+00    0.1631507725E+00    0.1470744371E+01    0.1395684779E+00    0    0
 -211    1   11   11    0    0    0.1235164833E+02   -0.3811189890E+01    0.4258131087E+00    0.1293403149E+02    0.1395681202E+00    0    0
  211    1   11   11    0    0    0.1323029995E+02   -0.3495804310E+01    0.9728316665E+00    0.1371959782E+02    0.1395680457E+00    0    0
  111    1   11   11    0    0    0.3779560089E+01   -0.1102628350E+01    0.1818315238E+00    0.3943620443E+01    0.1349640042E+00    0    0
  -16    1    9    9    0    0   -0.5607689917E-01    0.3220418841E-01    0.5296330526E-01    0.8358769119E-01    0.2221713221E-03    0    0
   24    2    9    9    0    0   -0.3323687744E+02    0.4834206104E+01   -0.1295072794E+01    0.3363293457E+02    0.1198878050E+01    0    0
  111    1   17   17    0    0   -0.6894266129E+01    0.8065181375E+00   -0.2826000452E+00    0.6948341846E+01    0.1349643469E+00    0    0
  111    1   17   17    0    0   -0.2997667551E+01    0.5172142982E+00   -0.3177121049E-02    0.3044954300E+01    0.1349634379E+00    0    0
  111    1   17   17    0    0   -0.1924831009E+02    0.2785746574E+01   -0.1037207723E+01    0.1947695732E+02    0.1349638700E+00    0    0
  211    1   17   17    0    0   -0.4096634865E+01    0.7247273922E+00    0.2791206352E-01    0.4162680149E+01    0.1395679414E+00    0    0
</event>
<event>
   21 9999    1    0.9119999695E+02    0.7565275169E-02    0.1185000000E+00
   11   -1    0    0    0    0    0.0000000000E+00    0.0000000000E+00    0.8000000000E+02    0.8000000000E+02    0.5109988851E-03    0    0
  -11   -1    0    0    0    0    0.0000000000E+00    0.0000000000E+00   -0.8000000000E+02    0.8000000000E+02    0.5109988851E-03    0    0
  -24    2    1    2    0    0   -0.2935145855E+01   -0.2182182074E+01   -0.1377340317E+01    0.8056237793E+02    0.8046752930E+02    0    0
   24    2    1    2    0    0    0.2935070753E+01    0.2182186604E+01    0.1374172688E+01    0.7942891693E+02    0.7933277130E+02    0    0
   22    1    1    2    0    0    0.8742629871E-04    0.2035497346E-05    0.5850311369E-02    0.5850964691E-02    0.0000000000E+00    0    0
   22    1    1    2    0    0   -0.1384233474E-04   -0.6935532383E-05   -0.2766784746E-02    0.2766828053E-02    0.0000000000E+00    0    0
   22    1    1    2    0    0    0.1548052751E-05    0.1460209944E-06    0.8413037722E-04    0.8414473996E-04    0.0000000000E+00    0    0
   15    2    3    3    0    0    0.2044548798E+02   -0.9095711708E+01    0.3208601761E+02    0.3915890884E+02    0.1777029991E+01    0    0
  -16    1    3    3    0    0   -0.2338063240E+02    0.6913529396E+01   -0.3346335602E+02    0.4140346909E+02    0.0000000000E+00    0    0
   16    1    4    4    0    0    0.3389099121E+02   -0.1173474884E+02    0.1959184074E+02    0.4086739349E+02    0.0000000000E+00    0    0
  -15    2    4    4    0    0   -0.3095591927E+02    0.1391693497E+02   -0.1821766853E+02    0.3856152725E+02    0.1777029991E+01    0    0
   16    1    8    8    0    0    0.5034135342E+01   -0.2237120152E+01    0.8386189461E+01    0.1003371334E+02    0.2114319796E-03    0    0
  -24    2    8    8    0    0    0.1541215706E+02   -0.6858949184E+01    0.2370109177E+02    0.2912673950E+02    0.1430187225E+01    0    0
  111    1   13   13    0    0    0.2268987179E+01   -0.1148290038E+01    0.4113070488E+01    0.4837606430E+01    0.1349634230E+00    0    0
  111    1   13   13    0    0    0.6700082779E+01   -0.3108465910E+01    0.9660093307E+01    0.1216097355E+02    0.1349638402E+00    0    0
 -321    1   13   13    0    0    0.6443090916E+01   -0.2602194548E+01    0.9927932739E+01    0.1212816525E+02    0.4936670959E+00    0    0
  -16    1   11   11    0    0   -0.1440457582E+01    0.4428465068E+00   -0.8086831570E+00    0.1710263133E+01    0.4624794528E-03    0    0
   24    2   11   11    0    0   -0.2951667976E+02    0.1347463608E+02   -0.1740970230E+02    0.3685277939E+02    0.1493148565E+01    0    0
  130    1   18   18    0    0   -0.9976506233E+01    0.4776787758E+01   -0.6125629425E+01    0.1265383053E+02    0.4977199435E+00    0    0
  211    1   18   18    0    0   -0.1070376682E+02    0.4866368771E+01   -0.6429505348E+01    0.1340187263E+02    0.1395686716E+00    0    0
  130    1   18   18    0    0   -0.8836404800E+01    0.3831478834E+01   -0.4854566574E+01    0.1079707432E+02    0.4977200031E+00    0    0
</event>
<event>
   20 9999    1    0.9119999695E+02    0.7565275169E-02    0.1185000000E+00
   11   -1    0    0    0    0    0.0000000000E+00    0.0000000000E+00    0.8000000000E+02    0.8000000000E+02    0.5109988851E-03    0    0
  -11   -1    0    0    0    0    0.0000000000E+00    0.0000000000E+00   -0.8000000000E+02    0.8000000000E+02    0.5109988851E-03    0    0
  -24    2    1    2    0    0   -0.1685471344E+02   -0.2650270081E+02    0.1201042557E+02    0.7282388306E+02    0.6459561157E+02    0    0
   24    2    1    2    0    0    0.1685471344E+02    0.2650270081E+02   -0.1201042557E+02    0.8717611694E+02    0.8042977905E+02    0    0
   15    2    3    3    0    0   -0.1886678886E+02   -0.3589929199E+02    0.3130892754E+02    0.5126520920E+02    0.1777029991E+01    0    0
  -16    1    3    3    0    0    0.2012075424E+01    0.9396591187E+01   -0.1929850197E+02    0.2155867577E+02    0.0000000000E+00    0    0
   16    1    4    4    0    0   -0.1024639606E+02    0.2641249895E+01   -0.4005013657E+02    0.4142436981E+02    0.0000000000E+00    0    0
  -15    2    4    4    0    0    0.2710111046E+02    0.2386145210E+02    0.2803971100E+02    0.4575174713E+02    0.1777029991E+01    0    0
   16    1    5    5    0    0   -0.7102928758E+00   -0.1235269666E+01    0.1278440714E+01    0.1914371371E+01    0.4608053132E-03    0    0
  -24    2    5    5    0    0   -0.1815723801E+02   -0.3466543579E+02    0.3003171730E+02    0.4935285568E+02    0.1556428909E+01    0    0
 -321    1   10   10    0    0   -0.1031029987E+02   -0.1876185608E+02    0.1641545486E+02    0.2698185349E+02    0.4936670661E+00    0    0
  111    1   10   10    0    0   -0.1141302228E+01   -0.2189960003E+01    0.2049048424E+01    0.3211745501E+01    0.1349633783E+00    0    0
  310    1   10   10    0    0   -0.6705637932E+01   -0.1371362209E+02    0.1156721592E+02    0.1915925980E+02    0.4977199435E+00    0    0
  -16    1    8    8    0    0    0.1375444531E+01    0.1499437332E+01    0.1619728684E+01    0.2600707769E+01    0.4054360907E-03    0    0
   24    2    8    8    0    0    0.2572673225E+02    0.2236295319E+02    0.2642108536E+02    0.4315283966E+02    0.1458524823E+01    0    0
  211    1   15   15    0    0    0.1371614456E+01    0.1378278613E+01    0.1364858270E+01    0.2379767895E+01    0.1395679861E+00    0    0
  211    1   15   15    0    0    0.1180494976E+02    0.1010149956E+02    0.1167323780E+02    0.1943401909E+02    0.1395679116E+00    0    0
 -211    1   15   15    0    0    0.3766834736E+01    0.3181952477E+01    0.4092281818E+01    0.6409377098E+01    0.1395679563E+00    0    0
  111    1   15   15    0    0    0.4110050201E+01    0.3493113279E+01    0.4197388649E+01    0.6835981369E+01    0.1349640042E+00    0    0
  111    1   15   15    0    0    0.4673283577E+01    0.4208109856E+01    0.5093319893E+01    0.8093694687E+01    0.1349641830E+00    0    0
</event>
<event>
   18 9999    1    0.9119999695E+02    0.7565275169E-02    0.1185000000E+00
   11   -1    0    0    0    0    0.0000000000E+00    0.0000000000E+00    0.8000000000E+02    0.8000000000E+02    0.5109988851E-03    0    0
  -11   -1    0    0    0    0    0.0000000000E+00    0.0000000000E+00   -0.8000000000E+02    0.8000000000E+02    0.5109988851E-03    0    0
  -24    2    1    2    0    0    0.1262141705E+01    0.4601655960E+01    0.2696857929E+01    0.8028578949E+02    0.8009848022E+02    0    0
   24    2    1    2    0    0   -0.1262600303E+01   -0.4601191998E+01   -0.2670457840E+01    0.7968779755E+02    0.7949999237E+02    0    0
   22    1    1    2    0    0    0.4586418509E-03   -0.4637482052E-03   -0.2640012093E-01    0.2640817687E-01    0.0000000000E+00    0    0
   15    2    3    3    0    0   -0.6669504642E+01   -0.3414593458E+01    0.4029946136E+02    0.4102860260E+02    0.1777029991E+01    0    0
  -16    1    3    3    0    0    0.7931646347E+01    0.8016249657E+01   -0.3760260391E+02    0.3925719070E+02    0.0000000000E+00    0    0
   16    1    4    4    0    0    0.1241265011E+02   -0.3355968857E+02   -0.2222540092E+02    0.4212238312E+02    0.0000000000E+00    0    0
  -15    2    4    4    0    0   -0.1367525101E+02    0.2895849800E+02    0.1955494308E+02    0.3756541824E+02    0.1777029991E+01    0    0
   16    1    6    6    0    0   -0.5578007221E+01   -0.2390994549E+01    0.2917912292E+02    0.2980356026E+02    0.0000000000E+00    0    0
   13    1    6    6    0    0   -0.2396418154E+00   -0.3803038895E+00    0.3473946095E+01    0.3504500628E+01    0.1056589633E+00    0    0
  -14    1    6    6    0    0   -0.8521183729E+00   -0.6434293389E+00    0.7647978783E+01    0.7722155571E+01    0.8631674427E-04    0    0
  -16    1    9    9    0    0   -0.5032360077E+01    0.1084013081E+02    0.7290550232E+01    0.1399947166E+02    0.2261636109E-03    0    0
   24    2    9    9    0    0   -0.8643428802E+01    0.1811950874E+02    0.1226516342E+02    0.2356742668E+02    0.1401416302E+01    0    0
  211    1   14   14    0    0   -0.1270181656E+01    0.3100314856E+01    0.1995927095E+01    0.3902373314E+01    0.1395677775E+00    0    0
  211    1   14   14    0    0   -0.3996963799E+00    0.1007877946E+01    0.6099559069E+00    0.1251838803E+01    0.1395678222E+00    0    0
 -211    1   14   14    0    0   -0.5035341263E+01    0.1069618225E+02    0.6993010521E+01    0.1373625374E+02    0.1395678073E+00    0    0
  111    1   14   14    0    0   -0.1938210964E+01    0.3315134525E+01    0.2666270971E+01    0.4676964283E+01    0.1349640638E+00    0    0
</event>
<event>
   20 9999    1    0.9119999695E+02    0.7565275169E-02    0.1185000000E+00
   11   -1    0    0    0    0    0.0000000000E+00    0.0000000000E+00    0.8000000000E+02    0.8000000000E+02    0.5109988851E-03    0    0
  -11   -1    0    0    0    0    0.0000000000E+00    0.0000000000E+00   -0.8000000000E+02    0.8000000000E+02    0.5109988851E-03    0    0
  -24    2    1    2    0    0    0.3631117344E+01   -0.4436364174E+01   -0.8377280235E+01    0.8000251770E+02    0.7935588837E+02    0    0
   24    2    1    2    0    0   -0.3631117344E+01    0.4436364174E+01    0.8377280235E+01    0.7999748230E+02    0.7935082245E+02    0    0
   15    2    3    3    0    0    0.5216352344E+00    0.3043670464E+02    0.1867520714E+02    0.3575732422E+02    0.1777029991E+01    0    0
  -16    1    3    3    0    0    0.3109482050E+01   -0.3487306976E+02   -0.2705248642E+02    0.4424518967E+02    0.0000000000E+00    0    0
   16    1    4    4    0    0   -0.8114430428E+01    0.4218472004E+01    0.4354751205E+02    0.4449747467E+02    0.0000000000E+00    0    0
  -15    2    4    4    0    0    0.4483312607E+01    0.2178922743E+00   -0.3517023087E+02    0.3550000763E+02    0.1777029991E+01    0    0
   16    1    5    5    0    0   -0.8568251878E-01    0.5954364777E+01    0.3747326612E+01    0.7035926342E+01    0.7157006621E-04    0    0
  -24    2    5    5    0    0    0.6073382497E+00    0.2448353577E+02    0.1492861462E+02    0.2872280502E+02    0.1524317503E+01    0    0
 -211    1   10   10    0    0    0.5675279722E-01    0.3391469717E+00    0.1997862756E+00    0.4214679301E+00    0.1395676136E+00    0    0
 -211    1   10   10    0    0    0.1311559826E+00    0.5253352642E+01    0.2980755091E+01    0.6043119907E+01    0.1395679563E+00    0    0
 -211    1   10   10    0    0    0.2656939924E+00    0.1264992809E+02    0.7743750572E+01    0.1483497334E+02    0.1395678669E+00    0    0
  211    1   10   10    0    0    0.9009046853E-01    0.4201534748E+01    0.2652309895E+01    0.4971441746E+01    0.1395679861E+00    0    0
  211    1   10   10    0    0    0.6364498287E-01    0.2039572954E+01    0.1352012515E+01    0.2451800585E+01    0.1395679861E+00    0    0
  -16    1    8    8    0    0    0.6670973897E+00   -0.1387362480E+00   -0.3786172628E+01    0.3846994877E+01    0.3811644274E-03    0    0
   24    2    8    8    0    0    0.3816391945E+01    0.3566371202E+00   -0.3138544464E+02    0.3165441322E+02    0.1504538655E+01    0    0
  211    1   17   17    0    0    0.2499826431E+01    0.2573792934E+00   -0.1625049973E+02    0.1644425774E+02    0.1395680606E+00    0    0
  310    1   17   17    0    0    0.7010332942E+00    0.1611345559E+00   -0.8317733765E+01    0.8363601685E+01    0.4977201223E+00    0    0
  111    1   17   17    0    0    0.6155325174E+00   -0.6187677011E-01   -0.6817213535E+01    0.6846555710E+01    0.1349640042E+00    0    0
</event>
<event>
   17 9999    1    0.9119999695E+02    0.7565275169E-02    0.1185000000E+00
   11   -1    0    0    0    0    0.0000000000E+00    0.0000000000E+00    0.8000000000E+02    0.8000000000E+02    0.5109988851E-03    0    0
  -11   -1    0    0    0    0    0.0000000000E+00    0.0000000000E+00   -0.8000000000E+02    0.8000000000E+02    0.5109988851E-03    0    0
  -24    2    1    2    0    0    0.1998930931E+02    0.1338008118E+02    0.1260614872E+02    0.7916669464E+02    0.7436296844E+02    0    0
   24    2    1    2    0    0   -0.1998930931E+02   -0.1338008118E+02   -0.1260639286E+02    0.8083306122E+02    0.7613450623E+02    0    0
   22    1    1    2    0    0   -0.5571852313E-08   -0.5972569550E-08    0.2442272380E-03    0.2442272380E-03    0.0000000000E+00    0    0
   15    2    3    3    0    0   -0.2271983910E+02    0.1091361332E+02   -0.1390181732E+02    0.2883949471E+02    0.1777029991E+01    0    0
  -16    1    3    3    0    0    0.4270914841E+02    0.2466468096E+01    0.2650796700E+02    0.5032720184E+02    0.0000000000E+00    0    0
   16    1    4    4    0    0   -0.1469637394E+02    0.1853149986E+02    0.2279321671E+02    0.3284708023E+02    0.0000000000E+00    0    0
  -15    2    4    4    0    0   -0.5292935371E+01   -0.3191158104E+02   -0.3539960861E+02    0.4798598099E+02    0.1777029991E+01    0    0
   16    1    6    6    0    0   -0.9564707756E+01    0.4478640079E+01   -0.6263040543E+01    0.1227874374E+02    0.0000000000E+00    0    0
   11    1    6    6    0    0   -0.1074265480E+02    0.5743190289E+01   -0.6215458393E+01    0.1367555428E+02    0.5179004511E-03    0    0
  -12    1    6    6    0    0   -0.2413370609E+01    0.6922124028E+00   -0.1423865438E+01    0.2886331320E+01    0.1310113876E-03    0    0
  -16    1    9    9    0    0   -0.1748376787E+00   -0.3781616688E+00   -0.4099428952E+00    0.5844894052E+00    0.4893083242E-03    0    0
   24    2    9    9    0    0   -0.5118306160E+01   -0.3153467560E+02   -0.3499105835E+02    0.4740338135E+02    0.1439918280E+01    0    0
  211    1   14   14    0    0   -0.1666453719E+01   -0.1103668594E+02   -0.1187408543E+02    0.1629720497E+02    0.1395680457E+00    0    0
  130    1   14   14    0    0   -0.1668532968E+01   -0.1004558182E+02   -0.1076577663E+02    0.1482725143E+02    0.4977200925E+00    0    0
  111    1   14   14    0    0   -0.1783319831E+01   -0.1045241165E+02   -0.1235120010E+02    0.1627892876E+02    0.1349641234E+00    0    0
</event>
<event>
   23 9999    1    0.9119999695E+02    0.7565275169E-02    0.1185000000E+00
   11   -1    0    0    0    0    0.0000000000E+00    0.0000000000E+00    0.8000000000E+02    0.8000000000E+02    0.5109988851E-03    0    0
  -11   -1    0    0    0    0    0.0000000000E+00    0.0000000000E+00   -0.8000000000E+02    0.8000000000E+02    0.5109988851E-03    0    0
  -24    2    1    2    0    0   -0.1927973175E+02   -0.1035972118E+02    0.9967363358E+01    0.7732682800E+02    0.7349188995E+02    0    0
   24    2    1    2    0    0    0.1928022957E+02    0.1036095047E+02   -0.1076760674E+02    0.8187258911E+02    0.7815435028E+02    0    0
   22    1    1    2    0    0   -0.1029293286E-02   -0.3091379476E-03    0.7987790108E+00    0.7987797260E+00    0.0000000000E+00    0    0
   22    1    1    2    0    0    0.5322704092E-03   -0.9204295930E-03    0.1464390429E-02    0.1809680020E-02    0.0000000000E+00    0    0
   15    2    3    3    0    0    0.1787766075E+02   -0.2705834007E+02    0.1589548492E+02    0.3616059875E+02    0.1777029991E+01    0    0
  -16    1    3    3    0    0   -0.3715739441E+02    0.1669861984E+02   -0.5928120613E+01    0.4116622925E+02    0.0000000000E+00    0    0
   16    1    4    4    0    0    0.1485704136E+02   -0.3190598106E+02   -0.1664597511E+02    0.3893342972E+02    0.0000000000E+00    0    0
  -15    2    4    4    0    0    0.4423188210E+01    0.4226693344E+02    0.5878368378E+01    0.4293915558E+02    0.1777029991E+01    0    0
   16    1    7    7    0    0    0.1975597739E+01   -0.3097936869E+01    0.1847190619E+01    0.4112458229E+01    0.4037096005E-04    0    0
  -24    2    7    7    0    0    0.1590276527E+02   -0.2396146774E+02    0.1404891968E+02    0.3204956055E+02    0.1659021020E+01    0    0
 -211    1   12   12    0    0    0.3297022820E+01   -0.4468353271E+01    0.2812708616E+01    0.6226343155E+01    0.1395679861E+00    0    0
 -211    1   12   12    0    0    0.4267396927E+01   -0.6397577286E+01    0.3921654463E+01    0.8633569717E+01    0.1395679861E+00    0    0
  211    1   12   12    0    0    0.1795047045E+01   -0.2579477549E+01    0.1507318974E+01    0.3488178253E+01    0.1395679861E+00    0    0
  111    1   12   12    0    0    0.2399689436E+01   -0.4177073479E+01    0.2204525471E+01    0.5299490452E+01    0.1349639893E+00    0    0
  111    1   12   12    0    0    0.4964091182E+00   -0.6193238497E+00    0.4076974690E+00    0.9024502635E+00    0.1349639744E+00    0    0
  111    1   12   12    0    0    0.3647200108E+01   -0.5719663143E+01    0.3195014238E+01    0.7499529362E+01    0.1349639744E+00    0    0
  -16    1   10   10    0    0    0.3588116765E+00    0.3974844933E+01    0.5590732098E+00    0.4029975414E+01    0.1976891217E-03    0    0
   24    2   10   10    0    0    0.4064550877E+01    0.3829375076E+02    0.5319526672E+01    0.3891087341E+02    0.1681264162E+01    0    0
  321    1   20   20    0    0    0.9158285856E+00    0.1046643543E+02    0.1841222644E+01    0.1067795944E+02    0.4936670959E+00    0    0
  211    1   20   20    0    0    0.1118883252E+01    0.1094252872E+02    0.1137789607E+01    0.1105915356E+02    0.1395677924E+00    0    0
 -321    1   20   20    0    0    0.2029839277E+01    0.1688479233E+02    0.2340515137E+01    0.1717376328E+02    0.4936670661E+00    0    0
</event>
<event>
   16 9999    1    0.9119999695E+02    0.7565275169E-02    0.1185000000E+00
   11   -1    0    0    0    0    0.0000000000E+00    0.0000000000E+00    0.8000000000E+02    0.8000000000E+02    0.5109988851E-03    0    0
  -11   -1    0    0    0    0    0.0000000000E+00    0.0000000000E+00   -0.8000000000E+02    0.8000000000E+02    0.5109988851E-03    0    0
  -24    2    1    2    0    0   -0.9296076775E+01    0.4456269741E+01   -0.1148012877E+01    0.8098235321E+02    0.8031530762E+02    0    0
   24    2    1    2    0    0    0.9275657654E+01   -0.4440599442E+01    0.1140110373E+01    0.7880690765E+02    0.7812471771E+02    0    0
   22    1    1    2    0    0    0.2814066969E-01   -0.2425527433E-02    0.1068957746E+00    0.1105644032E+00    0.0000000000E+00    0    0
   22    1    1    2    0    0   -0.7722190581E-02   -0.1324486826E-01   -0.9899330884E-01    0.1001735181E+00    0.0000000000E+00    0    0
   15    2    3    3    0    0    0.2777219582E+02   -0.1916702461E+02    0.1072337437E+02    0.3545163345E+02    0.1777029991E+01    0    0
  -16    1    3    3    0    0   -0.3706827164E+02    0.2362329292E+02   -0.1187138748E+02    0.4553072357E+02    0.0000000000E+00    0    0
   16    1    4    4    0    0    0.3190930557E+02   -0.2347161484E+02   -0.1802825737E+02    0.4352170181E+02    0.0000000000E+00    0    0
  -15    2    4    4    0    0   -0.2263364792E+02    0.1903101540E+02    0.1916836929E+02    0.3528520584E+02    0.1777029991E+01    0    0
   16    1    7    7    0    0    0.1455274105E+02   -0.9127294540E+01    0.5934884548E+01    0.1817450523E+02    0.2990099892E-03    0    0
 -211    1    7    7    0    0    0.1322054863E+02   -0.1004048538E+02    0.4788911819E+01    0.1727852440E+02    0.1395682842E+00    0    0
  -16    1   10   10    0    0   -0.1523194981E+02    0.1329437923E+02    0.1294442940E+02    0.2400647926E+02    0.1831054688E-03    0    0
  323    2   10   10    0    0   -0.7402588844E+01    0.5737384796E+01    0.6224693775E+01    0.1128011513E+02    0.8821968436E+00    0    0
  211    1   14   14    0    0   -0.3190315962E+00    0.1975486428E+00    0.2869615853E+00    0.4925777018E+00    0.1395679414E+00    0    0
  130    1   14   14    0    0   -0.7083557606E+01    0.5539835930E+01    0.5937732220E+01    0.1078753757E+02    0.4977199733E+00    0    0
</event>
<event>
   19 9999    1    0.9119999695E+02    0.7565275169E-02    0.1185000000E+00
   11   -1    0    0    0    0    0.0000000000E+00    0.0000000000E+00    0.8000000000E+02    0.8000000000E+02    0.5109988851E-03    0    0
  -11   -1    0    0    0    0    0.0000000000E+00    0.0000000000E+00   -0.8000000000E+02    0.8000000000E+02    0.5109988851E-03    0    0
  -24    2    1    2    0    0    0.2199948120E+02    0.5618376732E+01    0.1011629200E+02    0.7605753326E+02    0.7188091278E+02    0    0
   24    2    1    2    0    0   -0.2200107193E+02   -0.5618659973E+01   -0.1030134392E+02    0.8375558472E+02    0.7995788574E+02    0    0
   22    1    1    2    0    0   -0.3474686237E-03   -0.5864452687E-03    0.1591247916E+00    0.1591262519E+00    0.0000000000E+00    0    0
   22    1    1    2    0    0   -0.3617965922E-04   -0.5216470890E-04    0.2555156499E-01    0.2555164322E-01    0.0000000000E+00    0    0
   22    1    1    2    0    0    0.1973853912E-02    0.9217686020E-03    0.3751059412E-03    0.2210534178E-02    0.0000000000E+00    0    0
   15    2    3    3    0    0    0.1237992859E+02    0.2385702133E+02    0.3472766495E+02    0.4394984055E+02    0.1777029991E+01    0    0
  -16    1    3    3    0    0    0.9619553566E+01   -0.1823864365E+02   -0.2461137390E+02    0.3210768890E+02    0.0000000000E+00    0    0
   16    1    4    4    0    0   -0.4578513718E+02    0.2139932394E+01   -0.2740044022E+02    0.5340077209E+02    0.0000000000E+00    0    0
  -15    2    4    4    0    0    0.2378406525E+02   -0.7758592606E+01    0.1709909821E+02    0.3035481071E+02    0.1777029991E+01    0    0
   16    1    8    8    0    0    0.2961054325E+01    0.5126063824E+01    0.8358403206E+01    0.1024242496E+02    0.0000000000E+00    0    0
  -24    2    8    8    0    0    0.9419361115E+01    0.1873189735E+02    0.2637063026E+02    0.3370914841E+02    0.1134994984E+01    0    0
 -321    1   13   13    0    0    0.3911915064E+01    0.8355787277E+01    0.1149163723E+02    0.1474529457E+02    0.4936669767E+00    0    0
  130    1   13   13    0    0    0.5507447243E+01    0.1037611103E+02    0.1487899494E+02    0.1896385765E+02    0.4977199435E+00    0    0
  -16    1   11   11    0    0    0.8042229652E+01   -0.2443144798E+01    0.6531211853E+01    0.1064439487E+02    0.1726334885E-03    0    0
  323    2   11   11    0    0    0.1574277115E+02   -0.5315752983E+01    0.1056855869E+02    0.1971160889E+02    0.8723745942E+00    0    0
  211    1   17   17    0    0    0.3080269337E+01   -0.1279053807E+01    0.2033094406E+01    0.3908579111E+01    0.1395680457E+00    0    0
  310    1   17   17    0    0    0.1266250229E+02   -0.4036699295E+01    0.8535463333E+01    0.1580303001E+02    0.4977200031E+00    0    0
</event>
<event>
   23 9999    1    0.9119999695E+02    0.7565275169E-02    0.1185000000E+00
   11   -1    0    0    0    0    0.0000000000E+00    0.0000000000E+00    0.8000000000E+02    0.8000000000E+02    0.5109988851E-03    0    0
  -11   -1    0    0    0    0    0.0000000000E+00    0.0000000000E+00   -0.8000000000E+02    0.8000000000E+02    0.5109988851E-03    0    0
  -24    2    1    2    0    0    0.1337955952E+02   -0.9444531798E+00   -0.1305301762E+02    0.8305294800E+02    0.8091666412E+02    0    0
   24    2    1    2    0    0   -0.1337222672E+02    0.9208265543E+00    0.1003127670E+02    0.7378852081E+02    0.7186414337E+02    0    0
   22    1    1    2    0    0   -0.7289754227E-02    0.2344194427E-01    0.3086327791E+01    0.3086425543E+01    0.0000000000E+00    0    0
   22    1    1    2    0    0   -0.4445762534E-04    0.1850610570E-03   -0.6834570318E-01    0.6834596395E-01    0.0000000000E+00    0    0
   22    1    1    2    0    0    0.1189055411E-05   -0.3484278466E-06    0.3759064479E-02    0.3759064712E-02    0.0000000000E+00    0    0
   15    2    3    3    0    0   -0.3158686066E+02    0.9288691521E+01    0.5344423294E+01    0.3340254974E+02    0.1777029991E+01    0    0
  -16    1    3    3    0    0    0.4496641922E+02   -0.1023314476E+02   -0.1839744186E+02    0.4965039825E+02    0.0000000000E+00    0    0
   16    1    4    4    0    0   -0.3612019348E+02    0.2155654907E+02    0.2804048777E+01    0.4215703583E+02    0.0000000000E+00    0    0
  -15    2    4    4    0    0    0.1980872154E+02   -0.1835856819E+02    0.6620587349E+01    0.2786417770E+02    0.1777029991E+01    0    0
   22    1    4    4    0    0    0.2939243317E+01   -0.2277154684E+01    0.6066406369E+00    0.3767306328E+01    0.0000000000E+00    0    0
   16    1    8    8    0    0   -0.4698903561E+01    0.1539230704E+01    0.5793517232E+00    0.4978410721E+01    0.1364787604E-03    0    0
  -24    2    8    8    0    0   -0.2688920021E+02    0.7749826908E+01    0.4765281677E+01    0.2842545319E+02    0.1486449838E+01    0    0
 -211    1   14   14    0    0   -0.7483662128E+01    0.2029305935E+01    0.1398405433E+01    0.7880247593E+01    0.1395679861E+00    0    0
 -211    1   14   14    0    0   -0.4295713902E+01    0.1293348670E+01    0.5827132463E+00    0.4526029587E+01    0.1395679861E+00    0    0
  211    1   14   14    0    0   -0.8164059639E+01    0.2309334993E+01    0.1359430671E+01    0.8593743324E+01    0.1395679861E+00    0    0
  111    1   14   14    0    0   -0.3288222790E+01    0.1029144287E+01    0.5616480112E+00    0.3493595600E+01    0.1349640042E+00    0    0
  111    1   14   14    0    0   -0.1082347512E+01    0.4171251059E+00    0.1867759824E+00    0.1182611585E+01    0.1349639893E+00    0    0
  111    1   14   14    0    0   -0.2575194836E+01    0.6715679765E+00    0.6763086915E+00    0.2749225378E+01    0.1349640489E+00    0    0
  -16    1   11   11    0    0    0.1157178307E+02   -0.9589960098E+01    0.3692235470E+01    0.1547598457E+02    0.1984726259E-03    0    0
  -13    1   11   11    0    0    0.7387352467E+01   -0.7688214302E+01    0.2601513624E+01    0.1097545624E+02    0.1056591570E+00    0    0
   14    1   11   11    0    0    0.8503666520E+00   -0.1081117749E+01    0.3270994127E+00    0.1413836122E+01    0.6579661567E-04    0    0
</event>
<event>
   23 9999    1    0.9119999695E+02    0.7565275169E-02    0.1185000000E+00
   11   -1    0    0    0    0    0.0000000000E+00    0.0000000000E+00    0.8000000000E+02    0.8000000000E+02    0.5109988851E-03    0    0
  -11   -1    0    0    0    0    0.0000000000E+00    0.0000000000E+00   -0.8000000000E+02    0.8000000000E+02    0.5109988851E-03    0    0
  -24    2    1    2    0    0   -0.8306229591E+01   -0.1672820210E+01    0.1239939308E+02    0.7836783600E+02    0.7691542053E+02    0    0
   24    2    1    2    0    0    0.8303288460E+01    0.1671741962E+01   -0.1276230717E+02    0.8126923370E+02    0.7981272888E+02    0    0
   22    1    1    2    0    0    0.2941076411E-02    0.1078267465E-02    0.3629146218E+00    0.3629281521E+00    0.0000000000E+00    0    0
   15    2    3    3    0    0    0.1924733543E+02    0.2942919350E+02    0.7627250552E+00    0.3521756363E+02    0.1777029991E+01    0    0
  -16    1    3    3    0    0   -0.2755356598E+02   -0.3110201263E+02    0.1163666725E+02    0.4315027618E+02    0.0000000000E+00    0    0
   16    1    4    4    0    0   -0.1910104179E+02    0.2626828384E+02    0.1434887981E+02    0.3550722122E+02    0.0000000000E+00    0    0
  -15    2    4    4    0    0    0.2740432930E+02   -0.2459654236E+02   -0.2711118698E+02    0.4576200867E+02    0.1777029991E+01    0    0
   16    1    6    6    0    0    0.4367869854E+01    0.6437953949E+01   -0.1730010509E+00    0.7781739235E+01    0.5980199785E-03    0    0
  -24    2    6    6    0    0    0.1488022137E+02    0.2299239540E+02    0.9357560873E+00    0.2743721008E+02    0.1361465812E+01    0    0
  111    1   11   11    0    0    0.7829714298E+01    0.1218131065E+02    0.6403233409E+00    0.1449541283E+02    0.1349640936E+00    0    0
  111    1   11   11    0    0    0.2356821775E+01    0.3407191277E+01    0.7909926027E-01    0.4145845413E+01    0.1349636614E+00    0    0
  111    1   11   11    0    0    0.3473024845E+01    0.5409977436E+01   -0.1106268242E+00    0.6431190491E+01    0.1349639744E+00    0    0
 -211    1   11   11    0    0    0.1220661640E+01    0.1993917584E+01    0.3269604743E+00    0.2364763021E+01    0.1395679861E+00    0    0
  -16    1    9    9    0    0    0.1282946110E+01   -0.9710531831E+00   -0.1020562768E+01    0.1905372262E+01    0.6103515625E-04    0    0
   24    2    9    9    0    0    0.2612246323E+02   -0.2362645721E+02   -0.2609169197E+02    0.4385844040E+02    0.1481120348E+01    0    0
  211    1   17   17    0    0    0.2615451336E+01   -0.2412555695E+01   -0.2488335848E+01    0.4344226360E+01    0.1395680010E+00    0    0
  211    1   17   17    0    0    0.2357705832E+01   -0.1993689060E+01   -0.2216445684E+01    0.3803377867E+01    0.1395680159E+00    0    0
 -211    1   17   17    0    0    0.7821036339E+01   -0.6778801918E+01   -0.7788795471E+01    0.1295397949E+02    0.1395680308E+00    0    0
  111    1   17   17    0    0    0.3207832098E+01   -0.3281970263E+01   -0.3584664345E+01    0.5824907780E+01    0.1349641383E+00    0    0
  111    1   17   17    0    0    0.2598583460E+01   -0.2394204140E+01   -0.2563682795E+01    0.4367554665E+01    0.1349640191E+00    0    0
  111    1   17   17    0    0    0.7521853924E+01   -0.6765236855E+01   -0.7449768543E+01    0.1256439304E+02    0.1349640042E+00    0    0
</event>
<event>
   19 9999    1    0.9119999695E+02    0.7565275169E-02    0.1185000000E+00
   11   -1    0    0    0    0    0.0000000000E+00    0.0000000000E+00    0.8000000000E+02    0.8000000000E+02    0.5109988851E-03    0    0
  -11   -1    0    0    0    0    0.0000000000E+00    0.0000000000E+00   -0.8000000000E+02    0.8000000000E+02    0.5109988851E-03    0    0
  -24    2    1    2    0    0    0.6755600870E-01   -0.1454484749E+02    0.1532830429E+02    0.8137989807E+02    0.7858863831E+02    0    0
   24    2    1    2    0    0   -0.6755600870E-01    0.1454484749E+02   -0.1532830429E+02    0.7862010193E+02    0.7572718048E+02    0    0
   15    2    3    3    0    0    0.1818776321E+02   -0.4256742096E+02    0.5870250702E+01    0.4669472885E+02    0.1777029991E+01    0    0
  -16    1    3    3    0    0   -0.1812020874E+02    0.2802257156E+02    0.9458053589E+01    0.3468517303E+02    0.0000000000E+00    0    0
   16    1    4    4    0    0    0.2246338463E+02    0.1771567535E+02    0.2115908623E+02    0.3558308029E+02    0.0000000000E+00    0    0
  -15    2    4    4    0    0   -0.2253093910E+02   -0.3170827389E+01   -0.3648738861E+02    0.4303701782E+02    0.1777029991E+01    0    0
   16    1    5    5    0    0    0.9582263231E+00   -0.2149653673E+01    0.4016518593E-01    0.2353895187E+01    0.8631674427E-04    0    0
  -24    2    5    5    0    0    0.1723025322E+02   -0.4041943741E+02    0.5830316544E+01    0.4434267044E+02    0.1291129112E+01    0    0
 -321    1   10   10    0    0    0.1029968834E+02   -0.2382884789E+02    0.3821462870E+01    0.2624394989E+02    0.4936670959E+00    0    0
  310    1   10   10    0    0    0.6930562496E+01   -0.1659058571E+02    0.2008852720E+01    0.1809871292E+02    0.4977199435E+00    0    0
  -16    1    8    8    0    0   -0.8483238220E+01   -0.1167794824E+01   -0.1324101448E+02    0.1576875210E+02    0.1057159898E-03    0    0
   24    2    8    8    0    0   -0.1404858685E+02   -0.2003157139E+01   -0.2324781036E+02    0.2726995659E+02    0.1347016811E+01    0    0
  211    1   14   14    0    0   -0.2324605942E+01   -0.2397404909E+00   -0.4105468750E+01    0.4726057529E+01    0.1395679563E+00    0    0
  211    1   14   14    0    0   -0.2516559839E+01   -0.5461499691E+00   -0.3677605867E+01    0.4491727829E+01    0.1395678520E+00    0    0
  211    1   14   14    0    0   -0.4105990887E+01   -0.6021421552E+00   -0.7013884544E+01    0.8150815010E+01    0.1395679414E+00    0    0
 -211    1   14   14    0    0   -0.1706310630E+01   -0.2967695892E+00   -0.2578627825E+01    0.3109400034E+01    0.1395679563E+00    0    0
 -211    1   14   14    0    0   -0.3395119905E+01   -0.3183549643E+00   -0.5872222900E+01    0.6791956425E+01    0.1395678967E+00    0    0
</event>
<event>
   18 9999    1    0.9119999695E+02    0.7565275169E-02    0.1185000000E+00
   11   -1    0    0    0    0    0.0000000000E+00    0.0000000000E+00    0.8000000000E+02    0.8000000000E+02    0.5109988851E-03    0    0
  -11   -1    0    0    0    0    0.0000000000E+00    0.0000000000E+00   -0.8000000000E+02    0.8000000000E+02    0.5109988851E-03    0    0
  -24    2    1    2    0    0    0.1161896324E+02   -0.1704939270E+02    0.4795430660E+01    0.7703752136E+02    0.7406822205E+02    0    0
   24    2    1    2    0    0   -0.1161896324E+02    0.1704939270E+02   -0.4795430660E+01    0.8296247864E+02    0.8021280670E+02    0    0
   15    2    3    3    0    0   -0.2012197876E+02    0.1905228424E+02    0.7890660763E+01    0.2886700439E+02    0.1777029991E+01    0    0
  -16    1    3    3    0    0    0.3174094200E+02   -0.3610167694E+02   -0.3095229864E+01    0.4817052078E+02    0.0000000000E+00    0    0
   16    1    4    4    0    0   -0.1529234695E+02    0.3737852859E+02    0.2437661743E+02    0.4717234039E+02    0.0000000000E+00    0    0
  -15    2    4    4    0    0    0.3673384428E+01   -0.2032913589E+02   -0.2917204857E+02    0.3579013443E+02    0.1777029991E+01    0    0
   16    1    5    5    0    0   -0.1320275903E+01    0.1205736279E+01    0.7607349753E+00    0.1943102121E+01    0.1495049946E-03    0    0
  -24    2    5    5    0    0   -0.1880249596E+02    0.1784729767E+02    0.7130236626E+01    0.2692503929E+02    0.1434417486E+01    0    0
  310    1   10   10    0    0   -0.6842135906E+01    0.6748867035E+01    0.2702534676E+01    0.9995671272E+01    0.4977199733E+00    0    0
 -211    1   10   10    0    0   -0.7760387897E+01    0.7060365200E+01    0.2873962164E+01    0.1087894821E+02    0.1395680457E+00    0    0
  130    1   10   10    0    0   -0.4199972153E+01    0.4038065434E+01    0.1553739667E+01    0.6050418854E+01    0.4977199733E+00    0    0
  -16    1    8    8    0    0    0.1328763604E+01   -0.6068899155E+01   -0.8990975380E+01    0.1092862320E+02    0.1905822137E-03    0    0
   24    2    8    8    0    0    0.2344765425E+01   -0.1426103687E+02   -0.2018222046E+02    0.2486292076E+02    0.1402748108E+01    0    0
  321    1   15   15    0    0    0.9644610882E+00   -0.6895763397E+01   -0.9526951790E+01    0.1181051540E+02    0.4936670065E+00    0    0
  211    1   15   15    0    0    0.1071013510E+00   -0.6904228330E+00   -0.7984883189E+00    0.1070148230E+01    0.1395677924E+00    0    0
 -321    1   15   15    0    0    0.1273203254E+01   -0.6674852848E+01   -0.9856782913E+01    0.1198226070E+02    0.4936670065E+00    0    0
</event>
<event>
   14 9999    1    0.9119999695E+02    0.7565275169E-02    0.1185000000E+00
   11   -1    0    0    0    0    0.0000000000E+00    0.0000000000E+00    0.8000000000E+02    0.8000000000E+02    0.5109988851E-03    0    0
  -11   -1    0    0    0    0    0.0000000000E+00    0.0000000000E+00   -0.8000000000E+02    0.8000000000E+02    0.5109988851E-03    0    0
  -24    2    1    2    0    0   -0.7614737988E+01    0.4075011730E+01    0.8672547340E+01    0.8219909668E+02    0.8128276825E+02    0    0
   24    2    1    2    0    0    0.7614253044E+01   -0.4074357510E+01   -0.8671798706E+01    0.7779977417E+02    0.7683116150E+02    0    0
   22    1    1    2    0    0    0.4598319938E-03   -0.6699185469E-03   -0.7188061718E-03    0.1084858784E-02    0.0000000000E+00    0    0
   15    2    3    3    0    0   -0.8490042686E+01   -0.3435911560E+02    0.2176439476E+02    0.4158697128E+02    0.1777029991E+01    0    0
  -16    1    3    3    0    0    0.8753047585E+00    0.3843412781E+02   -0.1309184837E+02    0.4061212540E+02    0.0000000000E+00    0    0
   16    1    4    4    0    0   -0.1007312298E+02    0.2283441544E+02   -0.3008383369E+02    0.3908855820E+02    0.0000000000E+00    0    0
  -15    2    4    4    0    0    0.1768737602E+02   -0.2690877151E+02    0.2141203499E+02    0.3871121597E+02    0.1777029991E+01    0    0
   16    1    6    6    0    0   -0.4896460056E+01   -0.2003760719E+02    0.1166095829E+02    0.2369512558E+02    0.3452669771E-03    0    0
 -211    1    6    6    0    0   -0.3593916893E+01   -0.1432286072E+02    0.1010429478E+02    0.1789348602E+02    0.1395683885E+00    0    0
  -16    1    9    9    0    0    0.1239925003E+02   -0.1979207802E+02    0.1567788315E+02    0.2812941170E+02    0.3272645699E-03    0    0
  -13    1    9    9    0    0    0.3735493898E+01   -0.4590831280E+01    0.4043861389E+01    0.7168934822E+01    0.1056585535E+00    0    0
   14    1    9    9    0    0    0.1553328514E+01   -0.2526922941E+01    0.1691132426E+01    0.3414395571E+01    0.1220703125E-03    0    0
</event>
<event>
   17 9999    1    0.9119999695E+02    0.7565275169E-02    0.1185000000E+00
   11   -1    0    0    0    0    0.0000000000E+00    0.0000000000E+00    0.8000000000E+02    0.8000000000E+02    0.5109988851E-03    0    0
  -11   -1    0    0    0    0    0.0000000000E+00    0.0000000000E+00   -0.8000000000E+02    0.8000000000E+02    0.5109988851E-03    0    0
  -24    2    1    2    0    0   -0.4470507145E+01    0.9247381210E+01    0.1019905663E+02    0.7770916748E+02    0.7634916687E+02    0    0
   24    2    1    2    0    0    0.4670246601E+01   -0.9234745026E+01   -0.9529160500E+01    0.8159167480E+02    0.8036980438E+02    0    0
   22    1    1    2    0    0   -0.1997394711E+00   -0.1263599843E-01   -0.6698960662E+00    0.6991539598E+00    0.0000000000E+00    0    0
   15    2    3    3    0    0    0.2976992035E+02    0.1165845203E+02    0.2470635033E+02    0.4044414902E+02    0.1777029991E+01    0    0
  -16    1    3    3    0    0   -0.3424042892E+02   -0.2411071301E+01   -0.1450729465E+02    0.3726501846E+02    0.0000000000E+00    0    0
   16    1    4    4    0    0    0.3671575165E+02   -0.1912413788E+02   -0.2058702087E+02    0.4623423386E+02    0.0000000000E+00    0    0
  -15    2    4    4    0    0   -0.3204550552E+02    0.9889393806E+01    0.1105785942E+02    0.3535744095E+02    0.1777029991E+01    0    0
   16    1    6    6    0    0    0.1930485725E+02    0.7434056759E+01    0.1585649776E+02    0.2606475067E+02    0.2895151556E-03    0    0
   11    1    6    6    0    0    0.4010842800E+01    0.2014810801E+01    0.3067419767E+01    0.5436486721E+01    0.4805912904E-03    0    0
  -12    1    6    6    0    0    0.6455392838E+01    0.2210043907E+01    0.5783406258E+01    0.8944505692E+01    0.0000000000E+00    0    0
  -16    1    9    9    0    0   -0.5686209679E+01    0.1601927996E+01    0.1965543628E+01    0.6225955009E+01    0.2889113675E-03    0    0
   24    2    9    9    0    0   -0.2636055756E+02    0.8287855148E+01    0.9092751503E+01    0.2913287735E+02    0.1574457884E+01    0    0
  130    1   14   14    0    0   -0.1179368114E+02    0.3558928967E+01    0.4342289448E+01    0.1307134628E+02    0.4977199733E+00    0    0
  211    1   14   14    0    0   -0.5810601711E+01    0.1565277338E+01    0.1878513813E+01    0.6305670261E+01    0.1395679265E+00    0    0
  130    1   14   14    0    0   -0.8756275177E+01    0.3163648844E+01    0.2871948004E+01    0.9755862236E+01    0.4977200329E+00    0    0
</event>
<event>
   22 9999    1    0.9119999695E+02    0.7565275169E-02    0.1185000000E+00
   11   -1    0    0    0    0    0.0000000000E+00    0.0000000000E+00    0.8000000000E+02    0.8000000000E+02    0.5109988851E-03    0    0
  -11   -1    0    0    0    0    0.0000000000E+00    0.0000000000E+00   -0.8000000000E+02    0.8000000000E+02    0.5109988851E-03    0    0
  -24    2    1    2    0    0   -0.6016649246E+01   -0.1489819813E+02    0.4527296424E+00    0.7759034729E+02    0.7590718079E+02    0    0
   24    2    1    2    0    0    0.5986819267E+01    0.1489107609E+02   -0.2683087587E+00    0.8222270203E+02    0.8064064789E+02    0    0
   22    1    1    2    0    0    0.2983019873E-01    0.7121453062E-02   -0.1844208986E+00    0.1869535297E+00    0.0000000000E+00    0    0
   15    2    3    3    0    0   -0.1048442364E+02   -0.1715495872E+02    0.3622566223E+02    0.4146892929E+02    0.1777029991E+01    0    0
  -16    1    3    3    0    0    0.4467773914E+01    0.2256761551E+01   -0.3577293396E+02    0.3612141418E+02    0.0000000000E+00    0    0
   16    1    4    4    0    0   -0.6550464630E+01    0.3030128241E+01    0.3880503845E+02    0.3947050858E+02    0.0000000000E+00    0    0
  -15    2    4    4    0    0    0.1253728390E+02    0.1186094856E+02   -0.3907334518E+02    0.4275218964E+02    0.1777029991E+01    0    0
   16    1    6    6    0    0   -0.6417554617E+00   -0.1376855612E+01    0.2475877762E+01    0.2904746294E+01    0.4315837214E-04    0    0
  -24    2    6    6    0    0   -0.9843079567E+01   -0.1577877808E+02    0.3375120926E+02    0.3856581497E+02    0.1523774624E+01    0    0
 -211    1   11   11    0    0   -0.2316988230E+01   -0.3388447046E+01    0.7866017818E+01    0.8873765945E+01    0.1395679861E+00    0    0
 -211    1   11   11    0    0   -0.5151548982E+00   -0.8470275998E+00    0.1658960223E+01    0.1937645078E+01    0.1395679861E+00    0    0
  211    1   11   11    0    0   -0.2566740036E+01   -0.4535671711E+01    0.9375916481E+01    0.1072789669E+02    0.1395679861E+00    0    0
  111    1   11   11    0    0   -0.2383215666E+01   -0.3788082123E+01    0.7648978710E+01    0.8863090515E+01    0.1349639595E+00    0    0
  111    1   11   11    0    0   -0.1199015975E+01   -0.1775213480E+01    0.4334434509E+01    0.4836792469E+01    0.1349640042E+00    0    0
  111    1   11   11    0    0   -0.8619651198E+00   -0.1444336176E+01    0.2866900921E+01    0.3326623917E+01    0.1349640042E+00    0    0
  -16    1    9    9    0    0    0.1946500778E+01    0.1677088737E+01   -0.5530847073E+01    0.6098505020E+01    0.5774196470E-03    0    0
   24    2    9    9    0    0    0.1059127617E+02    0.1018432617E+02   -0.3354403687E+02    0.3665536499E+02    0.1586811543E+01    0    0
  211    1   19   19    0    0    0.1231239796E+01    0.7912882566E+00   -0.4025506973E+01    0.4285589218E+01    0.1395684481E+00    0    0
  111    1   19   19    0    0    0.4490433693E+01    0.5033841133E+01   -0.1520081329E+02    0.1663088989E+02    0.1349641979E+00    0    0
   22    1   19   19    0    0    0.4869601250E+01    0.4359195232E+01   -0.1431771183E+02    0.1573888397E+02    0.1495049946E-03    0    0
</event>
<event>
   14 9999    1    0.9119999695E+02    0.7565275169E-02    0.1185000000E+00
   11   -1    0    0    0    0    0.0000000000E+00    0.0000000000E+00    0.8000000000E+02    0.8000000000E+02    0.5109988851E-03    0    0
  -11   -1    0    0    0    0    0.0000000000E+00    0.0000000000E+00   -0.8000000000E+02    0.8000000000E+02    0.5109988851E-03    0    0
  -24    2    1    2    0    0    0.7866194248E+00    0.1062045956E+02   -0.1171212792E+01    0.7902751160E+02    0.7829791260E+02    0    0
   24    2    1    2    0    0   -0.6011000276E+00   -0.9766892433E+01    0.3339839935E+01    0.7863455200E+02    0.7795181274E+02    0    0
   22    1    1    2    0    0   -0.1855193526E+00   -0.8535674810E+00   -0.2168627262E+01    0.2337934732E+01    0.0000000000E+00    0    0
   15    2    3    3    0    0    0.1749112844E+01    0.1741983795E+02    0.3661402130E+02    0.4062332535E+02    0.1777029991E+01    0    0
  -16    1    3    3    0    0   -0.9624934196E+00   -0.6799377918E+01   -0.3778523254E+02    0.3840419006E+02    0.0000000000E+00    0    0
   16    1    4    4    0    0   -0.1930616570E+02    0.7370532751E+00    0.3521786499E+02    0.4016925812E+02    0.0000000000E+00    0    0
  -15    2    4    4    0    0    0.1870506668E+02   -0.1050394535E+02   -0.3187802696E+02    0.3846529388E+02    0.1777029991E+01    0    0
   16    1    6    6    0    0    0.6515479684E+00    0.5024405956E+01    0.1238050556E+02    0.1337707329E+02    0.3452669771E-03    0    0
 -321    1    6    6    0    0    0.1097633719E+01    0.1239611816E+02    0.2423495674E+02    0.2724785042E+02    0.4936670065E+00    0    0
  -16    1    9    9    0    0    0.1263003826E+02   -0.7992025852E+01   -0.2248320580E+02    0.2699786568E+02    0.1930101134E-03    0    0
  211    1    9    9    0    0    0.5741730690E+01   -0.2369339943E+01   -0.8896167755E+01    0.1085092926E+02    0.1395678222E+00    0    0
   22    1    9    9    0    0    0.3332974911E+00   -0.1425797641E+00   -0.4986536205E+00    0.6164995432E+00    0.0000000000E+00    0    0
</event>
<event>
   18 9999    1    0.9119999695E+02    0.7565275169E-02    0.1185000000E+00
   11   -1    0    0    0    0    0.0000000000E+00    0.0000000000E+00    0.8000000000E+02    0.8000000000E+02    0.5109988851E-03    0    0
  -11   -1    0    0    0    0    0.0000000000E+00    0.0000000000E+00   -0.8000000000E+02    0.8000000000E+02    0.5109988851E-03    0    0
  -24    2    1    2    0    0    0.3105004883E+02   -0.3727768707E+02    0.2007825279E+02    0.6404168701E+02    0.3666701508E+02    0    0
   24    2    1    2    0    0   -0.3105007553E+02    0.3727764130E+02   -0.2007002831E+02    0.9595008850E+02    0.8031117249E+02    0    0
   22    1    1    2    0    0    0.2650657734E-04    0.4482972872E-04   -0.8223113604E-02    0.8223278448E-02    0.0000000000E+00    0    0
   15    2    3    3    0    0    0.1608731270E+02   -0.3558272552E+02    0.2695914078E+02    0.4748563004E+02    0.1777029991E+01    0    0
  -16    1    3    3    0    0    0.1496273708E+02   -0.1694962144E+01   -0.6880887985E+01    0.1655605698E+02    0.0000000000E+00    0    0
   16    1    4    4    0    0    0.1806471634E+02    0.1924474716E+02   -0.3277270126E+02    0.4208021164E+02    0.0000000000E+00    0    0
  -15    2    4    4    0    0   -0.4911479187E+02    0.1803289604E+02    0.1270267200E+02    0.5386988068E+02    0.1777029991E+01    0    0
   16    1    6    6    0    0    0.7623704433E+01   -0.1614015961E+02    0.1163539314E+02    0.2130746460E+02    0.1495049946E-03    0    0
 -323    2    6    6    0    0    0.8464241028E+01   -0.1944396591E+02    0.1532480812E+02    0.2618003464E+02    0.9128584862E+00    0    0
 -211    1   11   11    0    0    0.1674846411E+01   -0.3353210449E+01    0.2525188208E+01    0.4521635532E+01    0.1395679712E+00    0    0
  310    1   11   11    0    0    0.6789394855E+01   -0.1609075546E+02    0.1279961967E+02    0.2165840149E+02    0.4977200627E+00    0    0
  -16    1    9    9    0    0   -0.4854476929E+01    0.1991773963E+01    0.1086820960E+01    0.5358571529E+01    0.8631674427E-04    0    0
   24    2    9    9    0    0   -0.4426224899E+02    0.1604183197E+02    0.1161635113E+02    0.4851343155E+02    0.1458099246E+01    0    0
  321    1   15   15    0    0   -0.2169766235E+02    0.7957893372E+01    0.5852865219E+01    0.2384567833E+02    0.4936669469E+00    0    0
  211    1   15   15    0    0   -0.9900108337E+01    0.3346290827E+01    0.2707952976E+01    0.1079640198E+02    0.1395680904E+00    0    0
 -321    1   15   15    0    0   -0.1266448689E+02    0.4737651348E+01    0.3055534840E+01    0.1387135792E+02    0.4936670065E+00    0    0
</event>
<event>
   18 9999    1    0.9119999695E+02    0.7565275169E-02    0.1185000000E+00
   11   -1    0    0    0    0    0.0000000000E+00    0.0000000000E+00    0.8000000000E+02    0.8000000000E+02    0.5109988851E-03    0    0
  -11   -1    0    0    0    0    0.0000000000E+00    0.0000000000E+00   -0.8000000000E+02    0.8000000000E+02    0.5109988851E-03    0    0
  -24    2    1    2    0    0    0.1807349205E+02    0.2769544125E+01    0.4169384766E+02    0.6741140747E+02    0.4971518707E+02    0    0
   24    2    1    2    0    0   -0.1807349205E+02   -0.2769544125E+01   -0.4169384766E+02    0.9258859253E+02    0.8062226105E+02    0    0
   15    2    3    3    0    0    0.1501611805E+02   -0.1314802551E+02    0.4639305878E+02    0.5053541565E+02    0.1777029991E+01    0    0
  -16    1    3    3    0    0    0.3057373047E+01    0.1591756916E+02   -0.4699213505E+01    0.1687599373E+02    0.0000000000E+00    0    0
   16    1    4    4    0    0   -0.1157378793E+01   -0.3903835297E+02   -0.3403340149E+02    0.5180352402E+02    0.0000000000E+00    0    0
  -15    2    4    4    0    0   -0.1691611290E+02    0.3626881027E+02   -0.7660444260E+01    0.4078506851E+02    0.1777029991E+01    0    0
   16    1    5    5    0    0    0.5684632063E+00   -0.7661690116E+00    0.2684007883E+01    0.2848519564E+01    0.5435642670E-03    0    0
  -24    2    5    5    0    0    0.1444824600E+02   -0.1238237381E+02    0.4371087646E+02    0.4768888092E+02    0.1230403304E+01    0    0
  111    1   10   10    0    0    0.3237060547E+01   -0.3248201132E+01    0.1059415913E+02    0.1154485989E+02    0.1349637210E+00    0    0
  111    1   10   10    0    0    0.1390961766E+01   -0.1318928719E+01    0.4295498848E+01    0.4705727577E+01    0.1349640191E+00    0    0
  111    1   10   10    0    0    0.4380425453E+01   -0.3491964579E+01    0.1328433704E+02    0.1441782761E+02    0.1349639595E+00    0    0
 -211    1   10   10    0    0    0.5439798355E+01   -0.4323279381E+01    0.1553688240E+02    0.1702046776E+02    0.1395680755E+00    0    0
  -16    1    8    8    0    0   -0.7069293976E+01    0.1390213966E+02   -0.3398272514E+01    0.1596222591E+02    0.1220703125E-03    0    0
  323    2    8    8    0    0   -0.9847484589E+01    0.2236809921E+02   -0.4262473583E+01    0.2482444763E+02    0.8830047846E+00    0    0
  211    1   16   16    0    0   -0.2532794952E+01    0.6405680180E+01   -0.1130139828E+01    0.6981724739E+01    0.1395679116E+00    0    0
  310    1   16   16    0    0   -0.7314690590E+01    0.1596242046E+02   -0.3132333755E+01    0.1784272385E+02    0.4977200031E+00    0    0
</event>
<event>
   16 9999    1    0.9119999695E+02    0.7565275169E-02    0.1185000000E+00
   11   -1    0    0    0    0    0.0000000000E+00    0.0000000000E+00    0.8000000000E+02    0.8000000000E+02    0.5109988851E-03    0    0
  -11   -1    0    0    0    0    0.0000000000E+00    0.0000000000E+00   -0.8000000000E+02    0.8000000000E+02    0.5109988851E-03    0    0
  -24    2    1    2    0    0    0.3596737862E+01   -0.9846962929E+01    0.6690447330E+01    0.8090189362E+02    0.7994032288E+02    0    0
   24    2    1    2    0    0   -0.3596737862E+01    0.9846962929E+01   -0.6690447330E+01    0.7909810638E+02    0.7811433411E+02    0    0
   15    2    3    3    0    0   -0.3402904892E+02   -0.8996726990E+01   -0.1316724014E+02    0.3762248611E+02    0.1777029991E+01    0    0
  -16    1    3    3    0    0    0.3799151611E+02   -0.9042323232E+00    0.1991658974E+02    0.4290505219E+02    0.0000000000E+00    0    0
   22    1    3    3    0    0   -0.3657285273E+00    0.5399595946E-01   -0.5890242383E-01    0.3743560016E+00    0.0000000000E+00    0    0
   16    1    4    4    0    0    0.1274365807E+02   -0.1202421570E+02    0.2914900208E+02    0.3400951385E+02    0.0000000000E+00    0    0
  -15    2    4    4    0    0   -0.1634039497E+02    0.2187117958E+02   -0.3583945084E+02    0.4508858871E+02    0.1777029991E+01    0    0
   16    1    5    5    0    0   -0.7007169247E+01   -0.1156978726E+01   -0.2569103003E+01    0.7552436829E+01    0.2625221387E-03    0    0
 -321    1    5    5    0    0   -0.2702314186E+02   -0.7840080738E+01   -0.1059862518E+02    0.3007143974E+02    0.4936670661E+00    0    0
  -16    1    9    9    0    0   -0.1583661318E+01    0.1890709519E+01   -0.3644871950E+01    0.4400892735E+01    0.5355813191E-03    0    0
   24    2    9    9    0    0   -0.1475737667E+02    0.1998132896E+02   -0.3219598770E+02    0.4068947220E+02    0.1420472145E+01    0    0
  130    1   13   13    0    0   -0.5600304127E+01    0.7681778431E+01   -0.1239561462E+02    0.1562920761E+02    0.4977200031E+00    0    0
  211    1   13   13    0    0   -0.2227489948E+01    0.2916609049E+01   -0.5194563866E+01    0.6361705303E+01    0.1395680457E+00    0    0
  310    1   13   13    0    0   -0.6929580212E+01    0.9382937431E+01   -0.1460580254E+02    0.1869855118E+02    0.4977199733E+00    0    0
</event>
<event>
   20 9999    1    0.9119999695E+02    0.7565275169E-02    0.1185000000E+00
   11   -1    0    0    0    0    0.0000000000E+00    0.0000000000E+00    0.8000000000E+02    0.8000000000E+02    0.5109988851E-03    0    0
  -11   -1    0    0    0    0    0.0000000000E+00    0.0000000000E+00   -0.8000000000E+02    0.8000000000E+02    0.5109988851E-03    0    0
  -24    2    1    2    0    0    0.1367502880E+02   -0.1098943710E+02   -0.4995628357E+01    0.7582537079E+02    0.7359861755E+02    0    0
   24    2    1    2    0    0   -0.1475074673E+02    0.1021664238E+02    0.4361214638E+01    0.8258785248E+02    0.8049700928E+02    0    0
   22    1    1    2    0    0    0.1058545113E+01    0.7638452649E+00    0.7256519794E+00    0.1493501902E+01    0.0000000000E+00    0    0
   22    1    1    2    0    0    0.1717310958E-01    0.8948774077E-02   -0.9123832732E-01    0.9327072650E-01    0.0000000000E+00    0    0
   15    2    3    3    0    0    0.3920321655E+02    0.8826448441E+01   -0.1346458149E+02    0.4241757965E+02    0.1777029991E+01    0    0
  -16    1    3    3    0    0   -0.2552818680E+02   -0.1981588554E+02    0.8468953133E+01    0.3340779495E+02    0.0000000000E+00    0    0
   16    1    4    4    0    0    0.9412256241E+01    0.1630755043E+02    0.3698230743E+02    0.4149961472E+02    0.0000000000E+00    0    0
  -15    2    4    4    0    0   -0.2416300201E+02   -0.6090906620E+01   -0.3262109375E+02    0.4108824158E+02    0.1777029991E+01    0    0
   16    1    7    7    0    0    0.1039362144E+02    0.2398252487E+01   -0.3738663197E+01    0.1130294609E+02    0.5560567370E-03    0    0
  -24    2    7    7    0    0    0.2881113434E+02    0.6428542614E+01   -0.9726448059E+01    0.3111630058E+02    0.1487537265E+01    0    0
 -321    1   12   12    0    0    0.7338667393E+01    0.1778476238E+01   -0.2642801762E+01    0.8015430450E+01    0.4936670661E+00    0    0
 -211    1   12   12    0    0    0.6799904346E+01    0.1624608397E+01   -0.2003688335E+01    0.7274084091E+01    0.1395690590E+00    0    0
  321    1   12   12    0    0    0.1467255974E+02    0.3025457382E+01   -0.5079956532E+01    0.1582678318E+02    0.4936670363E+00    0    0
  -16    1   10   10    0    0   -0.4007041931E+01   -0.9374997020E+00   -0.5783273220E+01    0.7097995281E+01    0.5526968744E-03    0    0
   24    2   10   10    0    0   -0.2015691185E+02   -0.5153646946E+01   -0.2683910561E+02    0.3399186325E+02    0.1499313354E+01    0    0
  211    1   17   17    0    0   -0.1191450596E+02   -0.3428792000E+01   -0.1629763603E+02    0.2047790337E+02    0.1395680755E+00    0    0
  130    1   17   17    0    0   -0.6550140858E+01   -0.1547975302E+01   -0.8370987892E+01    0.1075275517E+02    0.4977200031E+00    0    0
  111    1   17   17    0    0   -0.1692262650E+01   -0.1768790185E+00   -0.2170476675E+01    0.2761199474E+01    0.1349640936E+00    0    0
</event>
<event>
   20 9999    1    0.9119999695E+02    0.7565275169E-02    0.1185000000E+00
   11   -1    0    0    0    0    0.0000000000E+00    0.0000000000E+00    0.8000000000E+02    0.8000000000E+02    0.5109988851E-03    0    0
  -11   -1    0    0    0    0    0.0000000000E+00    0.0000000000E+00   -0.8000000000E+02    0.8000000000E+02    0.5109988851E-03    0    0
  -24    2    1    2    0    0    0.6210846305E+00    0.3614271164E+01   -0.3646524429E+01    0.8070844269E+02    0.8054257965E+02    0    0
   24    2    1    2    0    0   -0.6221919656E+00   -0.3614752054E+01    0.3646093845E+01    0.7928754425E+02    0.7911869049E+02    0    0
   22    1    1    2    0    0   -0.8322940914E-07    0.2007611101E-05    0.2016099636E-02    0.2016100567E-02    0.0000000000E+00    0    0
   22    1    1    2    0    0    0.1107448596E-02    0.4790880776E-03   -0.1585608465E-02    0.1992516452E-02    0.0000000000E+00    0    0
   15    2    3    3    0    0   -0.3190266609E+02   -0.1708230782E+02   -0.5388322473E+00    0.3623580551E+02    0.1777029991E+01    0    0
  -16    1    3    3    0    0    0.3438418579E+02    0.2294589996E+02   -0.2122784138E+01    0.4139193726E+02    0.0000000000E+00    0    0
   22    1    3    3    0    0   -0.1860433102E+01   -0.2249321222E+01   -0.9849081039E+00    0.3080698013E+01    0.0000000000E+00    0    0
   16    1    4    4    0    0   -0.3829954529E+02   -0.5950614929E+01   -0.8329503059E+01    0.3964398575E+02    0.0000000000E+00    0    0
  -15    2    4    4    0    0    0.3767735291E+02    0.2335862875E+01    0.1197559738E+02    0.3964356232E+02    0.1777029991E+01    0    0
   16    1    7    7    0    0   -0.1162642765E+02   -0.6419310093E+01    0.3256165236E-01    0.1328090477E+02    0.1057159898E-03    0    0
   13    1    7    7    0    0   -0.1937738800E+02   -0.1031166267E+02   -0.7927618027E+00    0.2196481895E+02    0.1056591719E+00    0    0
  -14    1    7    7    0    0   -0.9001730680E+00   -0.3520413935E+00    0.2213468254E+00    0.9915843606E+00    0.3662109375E-03    0    0
  -16    1   11   11    0    0    0.1135457802E+02    0.1113045216E+01    0.4042085648E+01    0.1210387421E+02    0.5854286719E-03    0    0
   24    2   11   11    0    0    0.2632425499E+02    0.1222909451E+01    0.7933982849E+01    0.2754124451E+02    0.1053643823E+01    0    0
  111    1   16   16    0    0    0.1185297966E+02    0.6264967918E+00    0.3365566730E+01    0.1233818817E+02    0.1349641681E+00    0    0
  111    1   16   16    0    0    0.1944294333E+01    0.1007556021E+00    0.5056704283E+00    0.2016023397E+01    0.1349638849E+00    0    0
  111    1   16   16    0    0    0.9660245895E+01    0.4476677477E+00    0.3001258850E+01    0.1012652588E+02    0.1349640191E+00    0    0
  211    1   16   16    0    0    0.2866734028E+01    0.4798909649E-01    0.1061486363E+01    0.3060506344E+01    0.1395678818E+00    0    0
</event>
<event>
   17 9999    1    0.9119999695E+02    0.7565275169E-02    0.1185000000E+00
   11   -1    0    0    0    0    0.0000000000E+00    0.0000000000E+00    0.8000000000E+02    0.8000000000E+02    0.5109988851E-03    0    0
  -11   -1    0    0    0    0    0.0000000000E+00    0.0000000000E+00   -0.8000000000E+02    0.8000000000E+02    0.5109988851E-03    0    0
  -24    2    1    2    0    0   -0.2280243158E+01    0.7724630833E+00    0.1063231754E+02    0.8034900665E+02    0.7960603333E+02    0    0
   24    2    1    2    0    0    0.2280243158E+01   -0.7724630833E+00   -0.1063241196E+02    0.7965089417E+02    0.7890133667E+02    0    0
   22    1    1    2    0    0    0.4044979462E-07   -0.5835713246E-08    0.9451348888E-04    0.9451350343E-04    0.0000000000E+00    0    0
   15    2    3    3    0    0    0.1887481117E+02    0.9175804138E+01    0.3879114151E+02    0.4414028168E+02    0.1777029991E+01    0    0
  -16    1    3    3    0    0   -0.2115505409E+02   -0.8403341293E+01   -0.2815882492E+02    0.3620872879E+02    0.0000000000E+00    0    0
   16    1    4    4    0    0   -0.1150359917E+02    0.1667726707E+02    0.2828554344E+02    0.3479275894E+02    0.0000000000E+00    0    0
  -15    2    4    4    0    0    0.1378384209E+02   -0.1744973183E+02   -0.3891795349E+02    0.4485813904E+02    0.1777029991E+01    0    0
   16    1    6    6    0    0    0.3668372154E+01    0.2167863369E+01    0.9147646904E+01    0.1009138393E+02    0.2441406250E-03    0    0
 -321    1    6    6    0    0    0.1520718288E+02    0.7008302212E+01    0.2964502525E+02    0.3405063629E+02    0.4936670661E+00    0    0
  -16    1    9    9    0    0    0.6949926376E+01   -0.8376994133E+01   -0.1887851143E+02    0.2179159737E+02    0.4597936640E-03    0    0
   24    2    9    9    0    0    0.6834458351E+01   -0.9073423386E+01   -0.2004097366E+02    0.2306830406E+02    0.1212105513E+01    0    0
  211    1   13   13    0    0    0.3367476463E+01   -0.4318018436E+01   -0.9804796219E+01    0.1123114872E+02    0.1395679116E+00    0    0
  211    1   13   13    0    0    0.1450295210E+01   -0.1476244569E+01   -0.3896537542E+01    0.4414197445E+01    0.1395684630E+00    0    0
 -211    1   13   13    0    0    0.6596860290E+00   -0.1132290721E+01   -0.2177612543E+01    0.2545337677E+01    0.1395679861E+00    0    0
  111    1   13   13    0    0    0.1356999874E+01   -0.2146868706E+01   -0.4162025928E+01    0.4877619267E+01    0.1349639297E+00    0    0
</event>
<event>
   18 9999    1    0.9119999695E+02    0.7565275169E-02    0.1185000000E+00
   11   -1    0    0    0    0    0.0000000000E+00    0.0000000000E+00    0.8000000000E+02    0.8000000000E+02    0.5109988851E-03    0    0
  -11   -1    0    0    0    0    0.0000000000E+00    0.0000000000E+00   -0.8000000000E+02    0.8000000000E+02    0.5109988851E-03    0    0
  -24    2    1    2    0    0   -0.1289334965E+02    0.4915226400E+00    0.6795508862E+01    0.8071480560E+02    0.7938653564E+02    0    0
   24    2    1    2    0    0    0.1289353561E+02   -0.4918680489E+00   -0.6792515278E+01    0.7928134155E+02    0.7792886353E+02    0    0
   22    1    1    2    0    0    0.4880617865E-07   -0.2981438030E-07   -0.3252256429E-02    0.3252256429E-02    0.0000000000E+00    0    0
   22    1    1    2    0    0   -0.1862272475E-03    0.3458514693E-03    0.6240447692E-04    0.3977287270E-03    0.0000000000E+00    0    0
   22    1    1    2    0    0   -0.5236095291E-07   -0.3980692043E-06    0.1963574759E-03    0.1963578834E-03    0.0000000000E+00    0    0
   15    2    3    3    0    0   -0.1576860046E+02   -0.1597445679E+02    0.3865612030E+02    0.4473572922E+02    0.1777029991E+01    0    0
  -16    1    3    3    0    0    0.2875250816E+01    0.1646598053E+02   -0.3186061096E+02    0.3597908020E+02    0.0000000000E+00    0    0
   16    1    4    4    0    0   -0.4173088074E+01   -0.3774296188E+02   -0.3654274940E+01    0.3814838791E+02    0.0000000000E+00    0    0
  -15    2    4    4    0    0    0.1706662369E+02    0.3725109482E+02   -0.3138240337E+01    0.4113295746E+02    0.1777029991E+01    0    0
   16    1    8    8    0    0   -0.8711015701E+01   -0.7570559502E+01    0.1991807365E+02    0.2302009583E+02    0.8631674427E-04    0    0
 -211    1    8    8    0    0   -0.7058206081E+01   -0.8404527664E+01    0.1873957062E+02    0.2171739769E+02    0.1395679861E+00    0    0
  -16    1   11   11    0    0    0.3207237959E+01    0.6868366718E+01   -0.4381713569E+00    0.7592946053E+01    0.7450290141E-03    0    0
   24    2   11   11    0    0    0.1386005688E+02    0.3038419151E+02   -0.2700192451E+01    0.3354162598E+02    0.1565053105E+01    0    0
  211    1   15   15    0    0    0.7174612045E+01    0.1460469246E+02   -0.1612981558E+01    0.1635216522E+02    0.1395677477E+00    0    0
  111    1   15   15    0    0    0.1048806548E+01    0.1958053946E+01   -0.2505405545E+00    0.2239409685E+01    0.1349639893E+00    0    0
   22    1   15   15    0    0    0.5636638641E+01    0.1382144547E+02   -0.8366702199E+00    0.1495005226E+02    0.4315837286E-03    0    0
</event>
<event>
   16 9999    1    0.9119999695E+02    0.7565275169E-02    0.1185000000E+00
   11   -1    0    0    0    0    0.0000000000E+00    0.0000000000E+00    0.8000000000E+02    0.8000000000E+02    0.5109988851E-03    0    0
  -11   -1    0    0    0    0    0.0000000000E+00    0.0000000000E+00   -0.8000000000E+02    0.8000000000E+02    0.5109988851E-03    0    0
  -24    2    1    2    0    0   -0.2774471045E+01    0.1987454414E+01   -0.1059131861E+01    0.8041383362E+02    0.8033439636E+02    0    0
   24    2    1    2    0    0    0.2774471045E+01   -0.1987454414E+01    0.1059131861E+01    0.7958616638E+02    0.7950590515E+02    0    0
   15    2    3    3    0    0    0.2822724342E+02    0.1879158974E+02    0.9900135994E+01    0.3537049103E+02    0.1777029991E+01    0    0
  -16    1    3    3    0    0   -0.1991672707E+02   -0.1967672157E+02   -0.1631229973E+02    0.3240278625E+02    0.0000000000E+00    0    0
   22    1    3    3    0    0   -0.1108498669E+02    0.2872585535E+01    0.5353032112E+01    0.1264055538E+02    0.0000000000E+00    0    0
   16    1    4    4    0    0    0.1389682770E+02    0.3328392029E+02    0.1625610924E+02    0.3956263733E+02    0.0000000000E+00    0    0
  -15    2    4    4    0    0   -0.1112235641E+02   -0.3527137756E+02   -0.1519697762E+02    0.4002352905E+02    0.1777029991E+01    0    0
   16    1    5    5    0    0    0.1144421005E+02    0.7245684147E+01    0.4545643806E+01    0.1428750420E+02    0.2441406250E-03    0    0
   13    1    5    5    0    0    0.7821514130E+01    0.5897238255E+01    0.2732130051E+01    0.1017001343E+02    0.1056590602E+00    0    0
  -14    1    5    5    0    0    0.8962619781E+01    0.5649401665E+01    0.2622748375E+01    0.1091435242E+02    0.2441406250E-03    0    0
  -16    1    9    9    0    0   -0.3214200497E+01   -0.9309502602E+01   -0.3386193514E+01    0.1041461563E+02    0.3452669771E-03    0    0
  213    2    9    9    0    0   -0.7908594131E+01   -0.2596326256E+02   -0.1181138229E+02    0.2961048698E+02    0.7970885038E+00    0    0
  211    1   14   14    0    0   -0.2677752972E+01   -0.7772104740E+01   -0.3398228645E+01    0.8896258354E+01    0.1395680010E+00    0    0
  111    1   14   14    0    0   -0.5230841160E+01   -0.1819115829E+02   -0.8413153648E+01    0.2071422958E+02    0.1349648386E+00    0    0
</event>
<event>
   20 9999    1    0.9119999695E+02    0.7565275169E-02    0.1185000000E+00
   11   -1    0    0    0    0    0.0000000000E+00    0.0000000000E+00    0.8000000000E+02    0.8000000000E+02    0.5109988851E-03    0    0
  -11   -1    0    0    0    0    0.0000000000E+00    0.0000000000E+00   -0.8000000000E+02    0.8000000000E+02    0.5109988851E-03    0    0
  -24    2    1    2    0    0   -0.1222267056E+02   -0.1096548176E+02    0.1458413029E+02    0.8398014832E+02    0.8105758667E+02    0    0
   24    2    1    2    0    0    0.1222267056E+02    0.1096548176E+02   -0.1458413029E+02    0.7601985168E+02    0.7277833557E+02    0    0
   15    2    3    3    0    0   -0.2626922417E+02   -0.4145790863E+02    0.7757483959E+01    0.4972088623E+02    0.1777029991E+01    0    0
  -16    1    3    3    0    0    0.1404655361E+02    0.3049242592E+02    0.6826646328E+01    0.3425925827E+02    0.0000000000E+00    0    0
   16    1    4    4    0    0   -0.5903236866E+01    0.1928934669E+02    0.2472140694E+02    0.3190728951E+02    0.0000000000E+00    0    0
  -15    2    4    4    0    0    0.1812590790E+02   -0.8323863983E+01   -0.3930553818E+02    0.4411256409E+02    0.1777029991E+01    0    0
   16    1    5    5    0    0   -0.1037866879E+02   -0.1551723957E+02    0.3472505569E+01    0.1898841095E+02    0.0000000000E+00    0    0
 -213    2    5    5    0    0   -0.1589158821E+02   -0.2594229889E+02    0.4285283089E+01    0.3073443031E+02    0.8343564272E+00    0    0
 -211    1   10   10    0    0   -0.1064975739E+02   -0.1801284218E+02    0.2791965246E+01    0.2111147499E+02    0.1395682842E+00    0    0
  111    1   10   10    0    0   -0.5241830826E+01   -0.7929456711E+01    0.1493318200E+01    0.9622956276E+01    0.1349641830E+00    0    0
  -16    1    8    8    0    0    0.1245646715E+01   -0.7345455885E+00   -0.2540197849E+01    0.2922977686E+01    0.6103515625E-04    0    0
   24    2    8    8    0    0    0.1688097382E+02   -0.7589646339E+01   -0.3676688385E+02    0.4119132233E+02    0.1533339262E+01    0    0
  211    1   14   14    0    0    0.4053821564E+01   -0.2084733248E+01   -0.8627274513E+01    0.9758530617E+01    0.1395679414E+00    0    0
  211    1   14   14    0    0    0.3694912672E+01   -0.1708985567E+01   -0.7885412216E+01    0.8875370979E+01    0.1395679712E+00    0    0
 -211    1   14   14    0    0    0.1043538928E+01   -0.4246435463E+00   -0.2163340330E+01    0.2443116188E+01    0.1395679861E+00    0    0
  111    1   14   14    0    0    0.1120090961E+01   -0.6678985953E+00   -0.2572918653E+01    0.2887701273E+01    0.1349639744E+00    0    0
  111    1   14   14    0    0    0.3051951885E+01   -0.1156884313E+01   -0.6839003563E+01    0.7579114437E+01    0.1349639744E+00    0    0
  111    1   14   14    0    0    0.3916657448E+01   -0.1546501040E+01   -0.8678936958E+01    0.9647488594E+01    0.1349638700E+00    0    0
</event>
<event>
   19 9999    1    0.9119999695E+02    0.7565275169E-02    0.1185000000E+00
   11   -1    0    0    0    0    0.0000000000E+00    0.0000000000E+00    0.8000000000E+02    0.8000000000E+02    0.5109988851E-03    0    0
  -11   -1    0    0    0    0    0.0000000000E+00    0.0000000000E+00   -0.8000000000E+02    0.8000000000E+02    0.5109988851E-03    0    0
  -24    2    1    2    0    0    0.1038542652E+02   -0.8702660561E+01   -0.2160606146E+01    0.7963380432E+02    0.7844284821E+02    0    0
   24    2    1    2    0    0   -0.1038544083E+02    0.8702649117E+01    0.2160525799E+01    0.8036611176E+02    0.7918618011E+02    0    0
   22    1    1    2    0    0    0.1419540422E-04    0.1147503554E-04    0.8027721196E-04    0.8232628170E-04    0.0000000000E+00    0    0
   15    2    3    3    0    0    0.1592315006E+02    0.3296039963E+02    0.5036098003E+01    0.3699263000E+02    0.1777029991E+01    0    0
  -16    1    3    3    0    0   -0.5537723541E+01   -0.4166305923E+02   -0.7196704388E+01    0.4264117050E+02    0.0000000000E+00    0    0
   16    1    4    4    0    0    0.4585565090E+01   -0.1521528721E+02    0.3415414429E+02    0.3767012024E+02    0.0000000000E+00    0    0
  -15    2    4    4    0    0   -0.1497100544E+02    0.2391793633E+02   -0.3199361801E+02    0.4269599533E+02    0.1777029991E+01    0    0
   16    1    6    6    0    0    0.3944850683E+01    0.8515564919E+01    0.1673009396E+01    0.9532872200E+01    0.0000000000E+00    0    0
  -24    2    6    6    0    0    0.1197892570E+02    0.2444613075E+02    0.3363286972E+01    0.2746121407E+02    0.1303301096E+01    0    0
 -321    1   11   11    0    0    0.9662200928E+01    0.1951148605E+02    0.2819538116E+01    0.2196018600E+02    0.4936670065E+00    0    0
  310    1   11   11    0    0    0.2316726446E+01    0.4934648037E+01    0.5437494516E+00    0.5501032829E+01    0.4977200031E+00    0    0
  -16    1    9    9    0    0   -0.4992321968E+01    0.8070815086E+01   -0.1095100212E+02    0.1449088669E+02    0.2660460887E-03    0    0
   24    2    9    9    0    0   -0.9979272842E+01    0.1584806156E+02   -0.2104387474E+02    0.2820679092E+02    0.1425268292E+01    0    0
  111    1   15   15    0    0   -0.6843445897E+00    0.9147840142E+00   -0.1619348884E+01    0.1986369371E+01    0.1349638999E+00    0    0
  111    1   15   15    0    0   -0.3538792849E+01    0.5541135788E+01   -0.6904309750E+01    0.9534933090E+01    0.1349637955E+00    0    0
  111    1   15   15    0    0   -0.1735931277E+01    0.2884776831E+01   -0.3510742188E+01    0.4866098881E+01    0.1349639893E+00    0    0
  211    1   15   15    0    0   -0.4020204544E+01    0.6507366180E+01   -0.9009475708E+01    0.1181939030E+02    0.1395680457E+00    0    0
</event>
<event>
   18 9999    1    0.9119999695E+02    0.7565275169E-02    0.1185000000E+00
   11   -1    0    0    0    0    0.0000000000E+00    0.0000000000E+00    0.8000000000E+02    0.8000000000E+02    0.5109988851E-03    0    0
  -11   -1    0    0    0    0    0.0000000000E+00    0.0000000000E+00   -0.8000000000E+02    0.8000000000E+02    0.5109988851E-03    0    0
  -24    2    1    2    0    0    0.1271638775E+02   -0.6429299831E+01    0.2395499611E+02    0.8444986725E+02    0.7971759796E+02    0    0
   24    2    1    2    0    0   -0.1271638775E+02    0.6429299831E+01   -0.2395499611E+02    0.7555013275E+02    0.7022064209E+02    0    0
   15    2    3    3    0    0    0.2722741067E+00   -0.1458161545E+02    0.5127698135E+02    0.5334026718E+02    0.1777029991E+01    0    0
  -16    1    3    3    0    0    0.1244411373E+02    0.8152315140E+01   -0.2732198334E+02    0.3110959625E+02    0.0000000000E+00    0    0
   16    1    4    4    0    0    0.1956466484E+02   -0.6042760372E+01   -0.3380689621E+02    0.3952463913E+02    0.0000000000E+00    0    0
  -15    2    4    4    0    0   -0.3228105164E+02    0.1247206020E+02    0.9851898193E+01    0.3602549744E+02    0.1777029991E+01    0    0
   16    1    5    5    0    0   -0.1642470807E+00   -0.7306968570E+00    0.3594343424E+01    0.3671539307E+01    0.2830083831E-03    0    0
*****    2    5    5    0    0    0.4365319312E+00   -0.1385149288E+02    0.4768465424E+02    0.4967082977E+02    0.1144745350E+01    0    0
 -211    1   10   10    0    0    0.1469743848E+00   -0.3955158234E+01    0.1308628559E+02    0.1367242622E+02    0.1395679712E+00    0    0
 -211    1   10   10    0    0    0.3105497062E+00   -0.7400148392E+01    0.2452492905E+02    0.2561933327E+02    0.1395681798E+00    0    0
  211    1   10   10    0    0   -0.2099216916E-01   -0.2496185303E+01    0.1007343864E+02    0.1037906742E+02    0.1395681202E+00    0    0
  -16    1    8    8    0    0   -0.1079846859E+02    0.4320200443E+01    0.3731677294E+01    0.1221460056E+02    0.3860202269E-03    0    0
   24    2    8    8    0    0   -0.2148385429E+02    0.8152350426E+01    0.6120608807E+01    0.2381231308E+02    0.1244021773E+01    0    0
  111    1   15   15    0    0   -0.8844305992E+01    0.3538448811E+01    0.2730400562E+01    0.9910382271E+01    0.1349639297E+00    0    0
  111    1   15   15    0    0   -0.6489122391E+01    0.2530818701E+01    0.1596643806E+01    0.7147113800E+01    0.1349636763E+00    0    0
  321    1   15   15    0    0   -0.6150426388E+01    0.2083083391E+01    0.1793564677E+01    0.6754817486E+01    0.4936669767E+00    0    0
</event>
<event>
   21 9999    1    0.9119999695E+02    0.7565275169E-02    0.1185000000E+00
   11   -1    0    0    0    0    0.0000000000E+00    0.0000000000E+00    0.8000000000E+02    0.8000000000E+02    0.5109988851E-03    0    0
  -11   -1    0    0    0    0    0.0000000000E+00    0.0000000000E+00   -0.8000000000E+02    0.8000000000E+02    0.5109988851E-03    0    0
  -24    2    1    2    0    0   -0.1261311150E+02   -0.1409102345E+02   -0.1361107349E+02    0.7296630096E+02    0.6914601898E+02    0    0
   24    2    1    2    0    0    0.1262676811E+02    0.1409080029E+02    0.8821062088E+01    0.8224366760E+02    0.7955013275E+02    0    0
   22    1    1    2    0    0   -0.1366685051E-01    0.2229384700E-03    0.4460762501E+01    0.4460783482E+01    0.0000000000E+00    0    0
   22    1    1    2    0    0    0.4751669167E-05    0.6218594422E-06    0.3268854916E+00    0.3268854916E+00    0.0000000000E+00    0    0
   22    1    1    2    0    0    0.6151047728E-05   -0.7672998095E-06    0.2363045933E-02    0.2363053849E-02    0.0000000000E+00    0    0
   15    2    3    3    0    0   -0.3851481247E+02   -0.1223943424E+02    0.5362031937E+01    0.4080568314E+02    0.1777029991E+01    0    0
  -16    1    3    3    0    0    0.2590170097E+02   -0.1851589680E+01   -0.1897310448E+02    0.3216061401E+02    0.0000000000E+00    0    0
   16    1    4    4    0    0    0.2782450914E+01   -0.3310310745E+02    0.1040265709E+00    0.3322000122E+02    0.0000000000E+00    0    0
  -15    2    4    4    0    0    0.9844316483E+01    0.4719390869E+02    0.8717035294E+01    0.4902366638E+02    0.1777029991E+01    0    0
   16    1    8    8    0    0   -0.1172066092E+01   -0.6461233497E+00    0.9508692473E-01    0.1341736197E+01    0.2329153067E-03    0    0
*****    2    8    8    0    0   -0.3734426117E+02   -0.1159379196E+02    0.5267156124E+01    0.3946555328E+02    0.8814585805E+00    0    0
  111    1   13   13    0    0   -0.1214010811E+02   -0.3955136061E+01    0.1628255129E+01    0.1287224674E+02    0.1349639893E+00    0    0
  111    1   13   13    0    0   -0.2612516165E+01   -0.8437998891E+00    0.2641652226E+00    0.2761383295E+01    0.1349639595E+00    0    0
 -211    1   13   13    0    0   -0.2259164047E+02   -0.6794857025E+01    0.3374736071E+01    0.2383192444E+02    0.1395678967E+00    0    0
  -16    1   11   11    0    0    0.2662944555E+01    0.1415623188E+02    0.2432863951E+01    0.1460852528E+02    0.2990099892E-03    0    0
   24    2   11   11    0    0    0.7181760311E+01    0.3303953552E+02    0.6284514904E+01    0.3441707230E+02    0.1360638022E+01    0    0
  211    1   18   18    0    0    0.2035041094E+01    0.1099044704E+02    0.2357060194E+01    0.1142394543E+02    0.1395676434E+00    0    0
  111    1   18   18    0    0    0.3618223429E+01    0.1460005188E+02    0.2307842493E+01    0.1521832466E+02    0.1349636167E+00    0    0
   22    1   18   18    0    0    0.1528495908E+01    0.7449036598E+01    0.1619612336E+01    0.7774804592E+01    0.1831054688E-03    0    0
</event>
<event>
   21 9999    1    0.9119999695E+02    0.7565275169E-02    0.1185000000E+00
   11   -1    0    0    0    0    0.0000000000E+00    0.0000000000E+00    0.8000000000E+02    0.8000000000E+02    0.5109988851E-03    0    0
  -11   -1    0    0    0    0    0.0000000000E+00    0.0000000000E+00   -0.8000000000E+02    0.8000000000E+02    0.5109988851E-03    0    0
  -24    2    1    2    0    0   -0.3571979904E+02   -0.7354683280E+00    0.1456920147E+02    0.8892718506E+02    0.8012076569E+02    0    0
   24    2    1    2    0    0    0.3571979904E+02    0.7354683280E+00   -0.1456920147E+02    0.7107281494E+02    0.5968784332E+02    0    0
   15    2    3    3    0    0   -0.1730693436E+02    0.1184235287E+02    0.4588629150E+02    0.5048247910E+02    0.1777029991E+01    0    0
  -16    1    3    3    0    0   -0.1841286659E+02   -0.1257782078E+02   -0.3131708717E+02    0.3844470215E+02    0.0000000000E+00    0    0
   16    1    4    4    0    0    0.4063920975E+02    0.2256965637E+02   -0.1424152756E+02    0.4861847305E+02    0.0000000000E+00    0    0
  -15    2    4    4    0    0   -0.4919410706E+01   -0.2183418846E+02   -0.3276740611E+00    0.2245434380E+02    0.1777029991E+01    0    0
   16    1    5    5    0    0   -0.4330198765E+01    0.3318950415E+01    0.1206584072E+02    0.1324200058E+02    0.2660460887E-03    0    0
  -24    2    5    5    0    0   -0.1297741604E+02    0.8523868561E+01    0.3382225418E+02    0.3724246597E+02    0.1409493446E+01    0    0
 -211    1   10   10    0    0   -0.1442875743E+01    0.9034209847E+00    0.3828143120E+01    0.4191923141E+01    0.1395678669E+00    0    0
 -211    1   10   10    0    0   -0.6546122551E+01    0.4035820007E+01    0.1618507767E+02    0.1791970444E+02    0.1395677924E+00    0    0
  211    1   10   10    0    0   -0.1927423477E+01    0.1046297431E+01    0.5299076557E+01    0.5736670971E+01    0.1395678818E+00    0    0
  111    1   10   10    0    0   -0.3060994864E+01    0.2538330078E+01    0.8509959221E+01    0.9394169807E+01    0.1349639744E+00    0    0
  -16    1    8    8    0    0   -0.1145382166E+01   -0.4779176712E+01   -0.8028998226E-01    0.4915168285E+01    0.3982660928E-04    0    0
   24    2    8    8    0    0   -0.3774222374E+01   -0.1705587196E+02   -0.2473969907E+00    0.1754006004E+02    0.1563656092E+01    0    0
  211    1   16   16    0    0   -0.1935041100E+00   -0.8920161128E+00   -0.1273348778E+00    0.9321104884E+00    0.1395679861E+00    0    0
  211    1   16   16    0    0   -0.2308527827E+00   -0.1877230406E+01    0.1298028678E+00    0.1900951147E+01    0.1395679563E+00    0    0
  211    1   16   16    0    0   -0.2153159142E+01   -0.9269375801E+01    0.7575620431E-02    0.9517192841E+01    0.1395679414E+00    0    0
 -211    1   16   16    0    0   -0.4211253524E+00   -0.1104077697E+01   -0.1528366935E-02    0.1189880610E+01    0.1395680010E+00    0    0
 -211    1   16   16    0    0   -0.7755808830E+00   -0.3913170815E+01   -0.2559122443E+00    0.3999925137E+01    0.1395679712E+00    0    0
</event>
<event>
   19 9999    1    0.9119999695E+02    0.7565275169E-02    0.1185000000E+00
   11   -1    0    0    0    0    0.0000000000E+00    0.0000000000E+00    0.8000000000E+02    0.8000000000E+02    0.5109988851E-03    0    0
  -11   -1    0    0    0    0    0.0000000000E+00    0.0000000000E+00   -0.8000000000E+02    0.8000000000E+02    0.5109988851E-03    0    0
  -24    2    1    2    0    0    0.6539159417E+00    0.1656107903E+02    0.2167842674E+02    0.8225607300E+02    0.7759774780E+02    0    0
   24    2    1    2    0    0   -0.6556247473E+00   -0.1655951881E+02   -0.2168049049E+02    0.7774057770E+02    0.7279358673E+02    0    0
   22    1    1    2    0    0    0.1708384603E-02   -0.1558863209E-02    0.2213074360E-02    0.3200988984E-02    0.0000000000E+00    0    0
   22    1    1    2    0    0    0.4485697787E-06    0.9412111979E-07   -0.1498346392E-03    0.1498353377E-03    0.0000000000E+00    0    0
   15    2    3    3    0    0   -0.1858941317E+01   -0.9337821960E+01    0.4577704239E+02    0.4679044724E+02    0.1777029991E+01    0    0
  -16    1    3    3    0    0    0.2512857199E+01    0.2589890099E+02   -0.2409861374E+02    0.3546562576E+02    0.0000000000E+00    0    0
   16    1    4    4    0    0   -0.4705237865E+01    0.2208716583E+02    0.1262780380E+02    0.2587360764E+02    0.0000000000E+00    0    0
  -15    2    4    4    0    0    0.4049613476E+01   -0.3864668274E+02   -0.3430829239E+02    0.5186697006E+02    0.1777029991E+01    0    0
   16    1    7    7    0    0   -0.3875419199E+00   -0.1211168051E+01    0.5290493011E+01    0.5441179276E+01    0.3229676804E-03    0    0
  -24    2    7    7    0    0   -0.1471472502E+01   -0.8127020836E+01    0.4048834991E+02    0.4135110855E+02    0.1547266960E+01    0    0
 -211    1   12   12    0    0   -0.9153665602E-01   -0.2757807255E+01    0.1403223228E+02    0.1430164051E+02    0.1395675689E+00    0    0
 -211    1   12   12    0    0   -0.2434245795E+00   -0.8687519431E+00    0.3608839035E+01    0.3722523928E+01    0.1395680010E+00    0    0
  211    1   12   12    0    0   -0.2965179384E+00   -0.1342072487E+01    0.7716376781E+01    0.7839070797E+01    0.1395679414E+00    0    0
  111    1   12   12    0    0   -0.7834255695E+00   -0.2822241306E+01    0.1309686470E+02    0.1342106152E+02    0.1349640340E+00    0    0
  111    1   12   12    0    0   -0.5656788871E-01   -0.3361487985E+00    0.2034038544E+01    0.2066814899E+01    0.1349637955E+00    0    0
  -16    1   10   10    0    0    0.2797901392E+01   -0.3021878433E+02   -0.2593820190E+02    0.3992234421E+02    0.2441406250E-03    0    0
  211    1   10   10    0    0    0.1251871586E+01   -0.8429423332E+01   -0.8371444702E+01    0.1194666958E+02    0.1395681798E+00    0    0
</event>
<event>
   19 9999    1    0.9119999695E+02    0.7565275169E-02    0.1185000000E+00
   11   -1    0    0    0    0    0.0000000000E+00    0.0000000000E+00    0.8000000000E+02    0.8000000000E+02    0.5109988851E-03    0    0
  -11   -1    0    0    0    0    0.0000000000E+00    0.0000000000E+00   -0.8000000000E+02    0.8000000000E+02    0.5109988851E-03    0    0
  -24    2    1    2    0    0    0.1630060911E+01   -0.2033871078E+02    0.9098937035E+01    0.7740670013E+02    0.7411265564E+02    0    0
   24    2    1    2    0    0   -0.1626791716E+01    0.2034690666E+02   -0.7665535927E+01    0.8115987396E+02    0.7817622375E+02    0    0
   22    1    1    2    0    0   -0.3269140841E-02   -0.8195348084E-02   -0.1433400989E+01    0.1433428168E+01    0.0000000000E+00    0    0
   15    2    3    3    0    0    0.2914824677E+02   -0.3105585480E+02    0.1842081261E+02    0.4643889236E+02    0.1777029991E+01    0    0
  -16    1    3    3    0    0   -0.2751818657E+02    0.1071714401E+02   -0.9321875572E+01    0.3096780777E+02    0.0000000000E+00    0    0
   16    1    4    4    0    0   -0.2669079208E+02   -0.1423305798E+02   -0.2048685265E+02    0.3653340149E+02    0.0000000000E+00    0    0
  -15    2    4    4    0    0    0.2506399918E+02    0.3457996368E+02    0.1282131672E+02    0.4462647247E+02    0.1777029991E+01    0    0
   16    1    6    6    0    0    0.4512662590E+00   -0.7142074704E+00    0.3835248053E+00    0.9278066158E+00    0.5000600941E-03    0    0
  -24    2    6    6    0    0    0.2869812775E+02   -0.3034286880E+02    0.1803801155E+02    0.4551291275E+02    0.1335281491E+01    0    0
 -211    1   11   11    0    0    0.1148561859E+02   -0.1248429871E+02    0.7402276516E+01    0.1850919533E+02    0.1395680159E+00    0    0
  310    1   11   11    0    0    0.1013059711E+02   -0.1088878918E+02    0.6179191113E+01    0.1611287880E+02    0.4977201223E+00    0    0
  111    1   11   11    0    0    0.7081915379E+01   -0.6969785213E+01    0.4456547260E+01    0.1089084339E+02    0.1349639446E+00    0    0
  -16    1    9    9    0    0    0.4968123913E+01    0.7339992523E+01    0.3080451488E+01    0.9383332253E+01    0.2114319796E-03    0    0
   24    2    9    9    0    0    0.2009686279E+02    0.2724133301E+02    0.9741370201E+01    0.3524489594E+02    0.1155132413E+01    0    0
  211    1   16   16    0    0    0.1855267167E+01    0.2388704300E+01    0.1055115461E+01    0.3206348658E+01    0.1395683140E+00    0    0
  111    1   16   16    0    0    0.1481296182E+01    0.1783430457E+01    0.5727325082E+00    0.2391882181E+01    0.1349641979E+00    0    0
   22    1   16   16    0    0    0.1676029778E+02    0.2306919479E+02    0.8113520622E+01    0.2964666176E+02    0.1726334885E-03    0    0
</event>
<event>
   14 9999    1    0.9119999695E+02    0.7565275169E-02    0.1185000000E+00
   11   -1    0    0    0    0    0.0000000000E+00    0.0000000000E+00    0.8000000000E+02    0.8000000000E+02    0.5109988851E-03    0    0
  -11   -1    0    0    0    0    0.0000000000E+00    0.0000000000E+00   -0.8000000000E+02    0.8000000000E+02    0.5109988851E-03    0    0
  -24    2    1    2    0    0   -0.1520475483E+02   -0.2369089127E+01   -0.6436314583E+01    0.7758876038E+02    0.7577462006E+02    0    0
   24    2    1    2    0    0    0.1520475483E+02    0.2369089127E+01    0.6436314583E+01    0.8241123962E+02    0.8070556641E+02    0    0
   15    2    3    3    0    0   -0.3464398956E+02    0.1600997162E+02   -0.2442961693E+02    0.4534852982E+02    0.1777029991E+01    0    0
  -16    1    3    3    0    0    0.1943923378E+02   -0.1837906075E+02    0.1799330330E+02    0.3224023438E+02    0.0000000000E+00    0    0
   16    1    4    4    0    0    0.4323355865E+02    0.4773451328E+01    0.2352247238E+02    0.4944929886E+02    0.0000000000E+00    0    0
  -15    2    4    4    0    0   -0.2802880287E+02   -0.2404362202E+01   -0.1708615875E+02    0.3296193695E+02    0.1777029991E+01    0    0
   16    1    5    5    0    0   -0.1154757023E+02    0.5623775482E+01   -0.8798057556E+01    0.1556852722E+02    0.2114319796E-03    0    0
 -323    2    5    5    0    0   -0.2309778404E+02    0.1038682652E+02   -0.1563252163E+02    0.2978178787E+02    0.1088785529E+01    0    0
 -211    1   10   10    0    0   -0.7210585594E+01    0.3380652189E+01   -0.4465003014E+01    0.9131105423E+01    0.1395679563E+00    0    0
  310    1   10   10    0    0   -0.1588719654E+02    0.7006173611E+01   -0.1116751862E+02    0.2065068245E+02    0.4977199435E+00    0    0
  -16    1    8    8    0    0   -0.2706514359E+02   -0.2090364456E+01   -0.1622742462E+02    0.3162626839E+02    0.1495049946E-03    0    0
  211    1    8    8    0    0   -0.9647641182E+00   -0.3140925765E+00   -0.8594071269E+00    0.1336968064E+01    0.1395678818E+00    0    0
</event>
<event>
   21 9999    1    0.9119999695E+02    0.7565275169E-02    0.1185000000E+00
   11   -1    0    0    0    0    0.0000000000E+00    0.0000000000E+00    0.8000000000E+02    0.8000000000E+02    0.5109988851E-03    0    0
  -11   -1    0    0    0    0    0.0000000000E+00    0.0000000000E+00   -0.8000000000E+02    0.8000000000E+02    0.5109988851E-03    0    0
  -24    2    1    2    0    0    0.2207589865E+01    0.2305580139E+01    0.5184814453E+01    0.8083747101E+02    0.8060784912E+02    0    0
   24    2    1    2    0    0   -0.2207589865E+01   -0.2305580139E+01   -0.5184814453E+01    0.7916252899E+02    0.7892803192E+02    0    0
   15    2    3    3    0    0    0.3917871475E+02   -0.1170404243E+02   -0.2519040406E+00    0.4092893219E+02    0.1777029991E+01    0    0
  -16    1    3    3    0    0   -0.3697112656E+02    0.1400962257E+02    0.5436718464E+01    0.3990853882E+02    0.0000000000E+00    0    0
   16    1    4    4    0    0    0.9306297302E+01    0.3674780273E+02    0.1115712643E+01    0.3792430496E+02    0.0000000000E+00    0    0
  -15    2    4    4    0    0   -0.1151388741E+02   -0.3905338287E+02   -0.6300527096E+01    0.4123822021E+02    0.1777029991E+01    0    0
   16    1    5    5    0    0    0.8047000885E+01   -0.2682139874E+01   -0.6641301513E-01    0.8482482910E+01    0.5458483938E-03    0    0
  -24    2    5    5    0    0    0.3113325500E+02   -0.9022362709E+01   -0.1855009198E+00    0.3244805908E+02    0.1469574213E+01    0    0
 -321    1   10   10    0    0    0.1561683369E+02   -0.4272719383E+01   -0.1663031578E+00    0.1619916534E+02    0.4936668873E+00    0    0
 -211    1   10   10    0    0    0.4216020584E+01   -0.9890314937E+00   -0.1942847520E+00    0.4337077618E+01    0.1395679712E+00    0    0
  211    1   10   10    0    0    0.1130040359E+02   -0.3760613203E+01    0.1750869602E+00    0.1191182041E+02    0.1395680606E+00    0    0
  -16    1    8    8    0    0   -0.1817567348E+00   -0.6448266506E+00   -0.2065023035E+00    0.7010564208E+00    0.8631674427E-04    0    0
   24    2    8    8    0    0   -0.1133258438E+02   -0.3841009521E+02   -0.6094273090E+01    0.4053878784E+02    0.1578082204E+01    0    0
  211    1   15   15    0    0   -0.1513105035E+01   -0.4872869492E+01   -0.1075637579E+01    0.5216399193E+01    0.1395679265E+00    0    0
  211    1   15   15    0    0   -0.3794725180E+01   -0.1304921436E+02   -0.1767593980E+01    0.1370495605E+02    0.1395679861E+00    0    0
  211    1   15   15    0    0   -0.1439760804E+01   -0.4770255089E+01   -0.8063704371E+00    0.5049550056E+01    0.1395680010E+00    0    0
 -211    1   15   15    0    0   -0.3926162422E+00   -0.1384777069E+01   -0.1826812774E+00    0.1457603097E+01    0.1395679861E+00    0    0
 -211    1   15   15    0    0   -0.3541108131E+01   -0.1206277752E+02   -0.1817535877E+01    0.1270326614E+02    0.1395680159E+00    0    0
  111    1   15   15    0    0   -0.6512686610E+00   -0.2270199776E+01   -0.4444538951E+00    0.2407013178E+01    0.1349639893E+00    0    0
</event>
<event>
   17 9999    1    0.9119999695E+02    0.7565275169E-02    0.1185000000E+00
   11   -1    0    0    0    0    0.0000000000E+00    0.0000000000E+00    0.8000000000E+02    0.8000000000E+02    0.5109988851E-03    0    0
  -11   -1    0    0    0    0    0.0000000000E+00    0.0000000000E+00   -0.8000000000E+02    0.8000000000E+02    0.5109988851E-03    0    0
  -24    2    1    2    0    0    0.3108844459E+00    0.3346742630E+02    0.1512050629E+02    0.7873759460E+02    0.6964778137E+02    0    0
   24    2    1    2    0    0   -0.3108844459E+00   -0.3346742630E+02   -0.1512050629E+02    0.8126240540E+02    0.7248988342E+02    0    0
   15    2    3    3    0    0    0.1133766174E+02    0.4594419479E+02    0.3028859711E+02    0.5621359634E+02    0.1777029991E+01    0    0
  -16    1    3    3    0    0   -0.1102677727E+02   -0.1247676659E+02   -0.1516809082E+02    0.2252399826E+02    0.0000000000E+00    0    0
   16    1    4    4    0    0    0.7108939648E+01    0.2218998528E+02   -0.9276855588E+00    0.2331937027E+02    0.0000000000E+00    0    0
  -15    2    4    4    0    0   -0.7419824123E+01   -0.5565740967E+02   -0.1419282055E+02    0.5794303513E+02    0.1777029991E+01    0    0
   16    1    5    5    0    0    0.5912886143E+01    0.2451161766E+02    0.1539739895E+02    0.2954422951E+02    0.1726334885E-03    0    0
 -323    2    5    5    0    0    0.5425221920E+01    0.2143438530E+02    0.1489239120E+02    0.2667158127E+02    0.8508793712E+00    0    0
  111    1   10   10    0    0    0.1707475901E+01    0.6630078793E+01    0.4302639484E+01    0.8087295532E+01    0.1349640191E+00    0    0
 -321    1   10   10    0    0    0.3717746496E+01    0.1480430794E+02    0.1058975220E+02    0.1858428764E+02    0.4936668575E+00    0    0
  -16    1    8    8    0    0   -0.1302303076E+01   -0.8531505585E+01   -0.1937837362E+01    0.8845213890E+01    0.2796982299E-03    0    0
   24    2    8    8    0    0   -0.6117813587E+01   -0.4712809753E+02   -0.1225554276E+02    0.4910010529E+02    0.1461705089E+01    0    0
  221    1   14   14    0    0   -0.1099488974E+01   -0.1010631943E+02   -0.2398011684E+01    0.1045936012E+02    0.5487999320E+00    0    0
  211    1   14   14    0    0   -0.2395045519E+01   -0.1818776894E+02   -0.4729848862E+01    0.1894524193E+02    0.1395680159E+00    0    0
  111    1   14   14    0    0   -0.2623278141E+01   -0.1883400345E+02   -0.5127680779E+01    0.1969549751E+02    0.1349639297E+00    0    0
</event>
<event>
   21 9999    1    0.9119999695E+02    0.7565275169E-02    0.1185000000E+00
   11   -1    0    0    0    0    0.0000000000E+00    0.0000000000E+00    0.8000000000E+02    0.8000000000E+02    0.5109988851E-03    0    0
  -11   -1    0    0    0    0    0.0000000000E+00    0.0000000000E+00   -0.8000000000E+02    0.8000000000E+02    0.5109988851E-03    0    0
  -24    2    1    2    0    0    0.2436269379E+02   -0.3164047003E+00    0.9233456850E+00    0.8376848602E+02    0.8014154053E+02    0    0
   24    2    1    2    0    0   -0.2436423683E+02    0.3183180094E+00   -0.8593288660E+00    0.7616744995E+02    0.7215971375E+02    0    0
   22    1    1    2    0    0    0.1543614431E-02   -0.1913313288E-02   -0.6401678920E-01    0.6406397372E-01    0.0000000000E+00    0    0
   15    2    3    3    0    0   -0.1280576324E+02   -0.3143782806E+02    0.7605789661E+01    0.3483289337E+02    0.1777029991E+01    0    0
  -16    1    3    3    0    0    0.3716845703E+02    0.3112142372E+02   -0.6682444096E+01    0.4893559265E+02    0.0000000000E+00    0    0
   16    1    4    4    0    0   -0.2037280846E+02   -0.1231349564E+02    0.3246802139E+02    0.4025973129E+02    0.0000000000E+00    0    0
  -15    2    4    4    0    0   -0.3991427660E+01    0.1263181400E+02   -0.3332735062E+02    0.3590771866E+02    0.1777029991E+01    0    0
   16    1    6    6    0    0   -0.2298939526E+00   -0.4232770503E+00    0.5469191819E-01    0.4847740829E+00    0.2642899744E-04    0    0
  -24    2    6    6    0    0   -0.1257637310E+02   -0.3101578712E+02    0.7551396847E+01    0.3434949112E+02    0.1649123311E+01    0    0
 -211    1   11   11    0    0   -0.2953956842E+01   -0.7682200432E+01    0.1587619185E+01    0.8383440971E+01    0.1395679712E+00    0    0
 -211    1   11   11    0    0   -0.3163913250E+01   -0.7093091011E+01    0.1439717174E+01    0.7900288105E+01    0.1395679861E+00    0    0
 -211    1   11   11    0    0   -0.1934947014E+01   -0.5124437809E+01    0.1486922979E+01    0.5677525997E+01    0.1395680159E+00    0    0
  211    1   11   11    0    0   -0.3130526066E+01   -0.7871161938E+01    0.2290861845E+01    0.8776269913E+01    0.1395679116E+00    0    0
  211    1   11   11    0    0   -0.1393030405E+01   -0.3244896889E+01    0.7462757230E+00    0.3611965656E+01    0.1395679861E+00    0    0
  -16    1    9    9    0    0   -0.4263199270E+00    0.1739790678E+01   -0.4983267784E+01    0.5295429707E+01    0.4192697525E-03    0    0
   24    2    9    9    0    0   -0.3565264940E+01    0.1089251995E+02   -0.2834539223E+02    0.3061370087E+02    0.1542505383E+01    0    0
  221    1   18   18    0    0   -0.1356177568E+01    0.2989757061E+01   -0.8242790222E+01    0.8889468193E+01    0.5488001108E+00    0    0
  211    1   18   18    0    0   -0.2609593868E+00    0.1881062746E+01   -0.4801948071E+01    0.5165721893E+01    0.1395680755E+00    0    0
  111    1   18   18    0    0   -0.1948128223E+01    0.6021701813E+01   -0.1530065632E+02    0.1655851364E+02    0.1349641234E+00    0    0
</event>
<event>
   18 9999    1    0.9119999695E+02    0.7565275169E-02    0.1185000000E+00
   11   -1    0    0    0    0    0.0000000000E+00    0.0000000000E+00    0.8000000000E+02    0.8000000000E+02    0.5109988851E-03    0    0
  -11   -1    0    0    0    0    0.0000000000E+00    0.0000000000E+00   -0.8000000000E+02    0.8000000000E+02    0.5109988851E-03    0    0
  -24    2    1    2    0    0   -0.1372274160E+01   -0.5761013508E+01    0.2440390825E+01    0.8155918121E+02    0.8130727386E+02    0    0
   24    2    1    2    0    0    0.1372293115E+01    0.5760973930E+01   -0.2440465689E+01    0.7844072723E+02    0.7817877197E+02    0    0
   22    1    1    2    0    0   -0.1888953739E-04    0.3960087270E-04    0.7496253966E-04    0.8685865760E-04    0.0000000000E+00    0    0
   15    2    3    3    0    0   -0.2061807060E+02    0.3243336487E+02   -0.2217370510E+01    0.3853702545E+02    0.1777029991E+01    0    0
  -16    1    3    3    0    0    0.1924579620E+02   -0.3819437790E+02    0.4657761097E+01    0.4302215576E+02    0.0000000000E+00    0    0
   16    1    4    4    0    0   -0.3383724976E+02   -0.9122600555E+01   -0.1506283855E+02    0.3814538574E+02    0.0000000000E+00    0    0
  -15    2    4    4    0    0    0.3520954514E+02    0.1488357449E+02    0.1262237263E+02    0.4029534531E+02    0.1777029991E+01    0    0
   16    1    6    6    0    0   -0.3532551050E+01    0.5847045898E+01   -0.7485159636E+00    0.6872200489E+01    0.5526968744E-03    0    0
  -24    2    6    6    0    0   -0.1708633041E+02    0.2658759308E+02   -0.1468941689E+01    0.3166634178E+02    0.1325388551E+01    0    0
 -211    1   11   11    0    0   -0.8297590256E+01    0.1226361275E+02   -0.5608678460E+00    0.1481824017E+02    0.1395680606E+00    0    0
  111    1   11   11    0    0   -0.4410526752E+01    0.7154527664E+01   -0.8348303437E+00    0.8447198868E+01    0.1349641979E+00    0    0
   22    1   11   11    0    0   -0.4378214359E+01    0.7169455051E+01   -0.7324367017E-01    0.8400905609E+01    0.2114319796E-03    0    0
  -16    1    9    9    0    0    0.1723347282E+02    0.7496108055E+01    0.5897749424E+01    0.1969689560E+02    0.0000000000E+00    0    0
  323    2    9    9    0    0    0.1797745705E+02    0.7388052464E+01    0.6725120544E+01    0.2060003662E+02    0.1167051435E+01    0    0
  211    1   16   16    0    0    0.6522854328E+01    0.3155027866E+01    0.2349162102E+01    0.7618390083E+01    0.1395679861E+00    0    0
  310    1   16   16    0    0    0.1145460224E+02    0.4233024597E+01    0.4375958443E+01    0.1298164654E+02    0.4977200031E+00    0    0
</event>
<event>
   20 9999    1    0.9119999695E+02    0.7565275169E-02    0.1185000000E+00
   11   -1    0    0    0    0    0.0000000000E+00    0.0000000000E+00    0.8000000000E+02    0.8000000000E+02    0.5109988851E-03    0    0
  -11   -1    0    0    0    0    0.0000000000E+00    0.0000000000E+00   -0.8000000000E+02    0.8000000000E+02    0.5109988851E-03    0    0
  -24    2    1    2    0    0    0.8018596649E+01    0.1044516754E+02   -0.1110671461E+00    0.7927799988E+02    0.7817665863E+02    0    0
   24    2    1    2    0    0   -0.8018597603E+01   -0.1044516754E+02    0.9082449228E-01    0.8070175171E+02    0.7962013245E+02    0    0
   22    1    1    2    0    0    0.9915650026E-06    0.3314074206E-06    0.2024265192E-01    0.2024265192E-01    0.0000000000E+00    0    0
   15    2    3    3    0    0    0.1033868217E+02    0.3108533859E+02    0.2881648636E+02    0.4366616821E+02    0.1777029991E+01    0    0
  -16    1    3    3    0    0   -0.2320085764E+01   -0.2064017105E+02   -0.2892755318E+02    0.3561183548E+02    0.0000000000E+00    0    0
   16    1    4    4    0    0   -0.4107173920E+01    0.1336888123E+02    0.3530527115E+02    0.3797444153E+02    0.0000000000E+00    0    0
  -15    2    4    4    0    0   -0.3911423445E+01   -0.2381404877E+02   -0.3521444702E+02    0.4272731400E+02    0.1777029991E+01    0    0
   16    1    6    6    0    0    0.1182126284E+01    0.3195352554E+01    0.2665806770E+01    0.4325994015E+01    0.4139605735E-03    0    0
  -24    2    6    6    0    0    0.9156963348E+01    0.2789121056E+02    0.2615181351E+02    0.3934189606E+02    0.1448345900E+01    0    0
  111    1   11   11    0    0    0.4009725571E+01    0.1126365185E+02    0.1075238895E+02    0.1608041763E+02    0.1349639744E+00    0    0
  111    1   11   11    0    0    0.3195079267E+00    0.1029156327E+01    0.7572069168E+00    0.1323943138E+01    0.1349634528E+00    0    0
 -321    1   11   11    0    0    0.4827728748E+01    0.1559839916E+02    0.1464221573E+02    0.2193752861E+02    0.4936670065E+00    0    0
  -16    1    9    9    0    0   -0.6974952221E+00   -0.5728652000E+01   -0.7629915714E+01    0.9566585541E+01    0.2441406250E-03    0    0
   24    2    9    9    0    0   -0.3214082241E+01   -0.1808633423E+02   -0.2758591843E+02    0.3316241074E+02    0.1147478342E+01    0    0
  111    1   16   16    0    0   -0.2022840828E+00   -0.1352741241E+01   -0.2072364330E+01    0.2486711979E+01    0.1349637657E+00    0    0
  111    1   16   16    0    0   -0.2149678022E+00   -0.1726951838E+01   -0.2769603968E+01    0.3273758650E+01    0.1349639595E+00    0    0
  111    1   16   16    0    0   -0.1239456415E+01   -0.8295952797E+01   -0.1218567371E+02    0.1479418564E+02    0.1349643171E+00    0    0
  211    1   16   16    0    0   -0.1557373762E+01   -0.6710688591E+01   -0.1055827618E+02    0.1260775280E+02    0.1395678520E+00    0    0
</event>
<event>
   18 9999    1    0.9119999695E+02    0.7565275169E-02    0.1185000000E+00
   11   -1    0    0    0    0    0.0000000000E+00    0.0000000000E+00    0.8000000000E+02    0.8000000000E+02    0.5109988851E-03    0    0
  -11   -1    0    0    0    0    0.0000000000E+00    0.0000000000E+00   -0.8000000000E+02    0.8000000000E+02    0.5109988851E-03    0    0
  -24    2    1    2    0    0    0.4166171551E+01   -0.5154316902E+01   -0.8949567676E+00    0.8005527496E+02    0.7977545166E+02    0    0
   24    2    1    2    0    0   -0.4166171551E+01    0.5154316902E+01    0.8949567676E+00    0.7994472504E+02    0.7966451263E+02    0    0
   15    2    3    3    0    0    0.2739036560E+02   -0.3276663589E+02   -0.7438125134E+01    0.4338626480E+02    0.1777029991E+01    0    0
  -16    1    3    3    0    0   -0.2322419357E+02    0.2761231804E+02    0.6543168545E+01    0.3666901016E+02    0.0000000000E+00    0    0
   16    1    4    4    0    0    0.2297340965E+02    0.1977449417E+02    0.2616631126E+02    0.4004352570E+02    0.0000000000E+00    0    0
  -15    2    4    4    0    0   -0.2713958168E+02   -0.1462017727E+02   -0.2527135468E+02    0.3990119934E+02    0.1777029991E+01    0    0
   16    1    5    5    0    0    0.1334072232E+01   -0.1374019384E+01   -0.2861475348E+00    0.1936377645E+01    0.1525878906E-04    0    0
  -24    2    5    5    0    0    0.2605737114E+02   -0.3139390564E+02   -0.7152270317E+01    0.4145159531E+02    0.1586161256E+01    0    0
 -211    1   10   10    0    0    0.7957289696E+01   -0.9222731590E+01   -0.2279147148E+01    0.1239319229E+02    0.1395680159E+00    0    0
 -211    1   10   10    0    0    0.6588732600E+00   -0.8937063813E+00   -0.2581565678E+00    0.1148455143E+01    0.1395679414E+00    0    0
  211    1   10   10    0    0    0.3950880051E+01   -0.4912647247E+01   -0.1043361425E+01    0.6391528606E+01    0.1395680010E+00    0    0
  111    1   10   10    0    0    0.2934033155E+01   -0.3651928902E+01   -0.9230309129E+00    0.4776540279E+01    0.1349640042E+00    0    0
  111    1   10   10    0    0    0.8522770882E+01   -0.1025665188E+02   -0.2266676664E+01    0.1352747440E+02    0.1349639744E+00    0    0
  111    1   10   10    0    0    0.2033524036E+01   -0.2456239700E+01   -0.3818975985E+00    0.3214404345E+01    0.1349640191E+00    0    0
  -16    1    8    8    0    0   -0.1818669128E+02   -0.1060421467E+02   -0.1707841492E+02    0.2710862160E+02    0.2729575208E-03    0    0
  321    1    8    8    0    0   -0.8953959465E+01   -0.4016539097E+01   -0.8193934441E+01    0.1279414845E+02    0.4936670661E+00    0    0
</event>
<event>
   22 9999    1    0.9119999695E+02    0.7565275169E-02    0.1185000000E+00
   11   -1    0    0    0    0    0.0000000000E+00    0.0000000000E+00    0.8000000000E+02    0.8000000000E+02    0.5109988851E-03    0    0
  -11   -1    0    0    0    0    0.0000000000E+00    0.0000000000E+00   -0.8000000000E+02    0.8000000000E+02    0.5109988851E-03    0    0
  -24    2    1    2    0    0    0.5463181973E+01   -0.1514548588E+02    0.1181203842E+02    0.8386293793E+02    0.8145082092E+02    0    0
   24    2    1    2    0    0   -0.5405273438E+01    0.1512666225E+02   -0.1197893906E+02    0.7595940399E+02    0.7326870728E+02    0    0
   22    1    1    2    0    0   -0.5790851265E-01    0.1882358082E-01    0.1669011414E+00    0.1776617914E+00    0.0000000000E+00    0    0
   15    2    3    3    0    0    0.4281871414E+02   -0.2452835321E+01    0.1137593269E+02    0.4440752411E+02    0.1777029991E+01    0    0
  -16    1    3    3    0    0   -0.3735553360E+02   -0.1269265079E+02    0.4361059666E+00    0.3945541000E+02    0.0000000000E+00    0    0
   16    1    4    4    0    0    0.2242423058E+02    0.3203750610E+02    0.4598213673E+01    0.3937501144E+02    0.0000000000E+00    0    0
  -15    2    4    4    0    0   -0.2782950211E+02   -0.1691084480E+02   -0.1657715225E+02    0.3658439255E+02    0.1777029991E+01    0    0
   16    1    6    6    0    0    0.1136381817E+02   -0.4075588584E+00    0.2862056494E+01    0.1172577667E+02    0.4315837214E-04    0    0
  -24    2    6    6    0    0    0.3145658112E+02   -0.2045372963E+01    0.8514323235E+01    0.3268349457E+02    0.1420290828E+01    0    0
 -211    1   11   11    0    0    0.7671195507E+01   -0.6660490036E+00    0.1891361833E+01    0.7930169582E+01    0.1395679563E+00    0    0
 -211    1   11   11    0    0    0.6537591934E+01   -0.3098995090E+00    0.1718564868E+01    0.6768240929E+01    0.1395679712E+00    0    0
  211    1   11   11    0    0    0.1975900888E+01   -0.1381724328E+00    0.7019731402E+00    0.2106067896E+01    0.1395679563E+00    0    0
  111    1   11   11    0    0    0.8718486786E+01   -0.5439962745E+00    0.2268593073E+01    0.9026221275E+01    0.1349639744E+00    0    0
  111    1   11   11    0    0    0.1187551975E+01   -0.6547086686E-01    0.3667797744E+00    0.1251922011E+01    0.1349639744E+00    0    0
  111    1   11   11    0    0    0.5365852833E+01   -0.3217847347E+00    0.1567050576E+01    0.5600873470E+01    0.1349639893E+00    0    0
  -16    1    9    9    0    0   -0.2701776266E+01   -0.1637878299E+01   -0.1994453192E+01    0.3736319542E+01    0.2862802648E-03    0    0
   24    2    9    9    0    0   -0.2512882233E+02   -0.1527363205E+02   -0.1458335209E+02    0.3284951401E+02    0.1294128776E+01    0    0
  111    1   19   19    0    0   -0.1021919727E+01   -0.5483977199E+00   -0.7004272938E+00    0.1361570239E+01    0.1349639744E+00    0    0
  111    1   19   19    0    0   -0.1220644188E+02   -0.7210058212E+01   -0.7120046616E+01    0.1586491203E+02    0.1349638402E+00    0    0
  321    1   19   19    0    0   -0.1190046120E+02   -0.7515176296E+01   -0.6762878418E+01    0.1562303066E+02    0.4936670661E+00    0    0
</event>
<event>
   15 9999    1    0.9119999695E+02    0.7565275169E-02    0.1185000000E+00
   11   -1    0    0    0    0    0.0000000000E+00    0.0000000000E+00    0.8000000000E+02    0.8000000000E+02    0.5109988851E-03    0    0
  -11   -1    0    0    0    0    0.0000000000E+00    0.0000000000E+00   -0.8000000000E+02    0.8000000000E+02    0.5109988851E-03    0    0
  -24    2    1    2    0    0   -0.5130057335E+01   -0.1491065311E+02    0.3411857128E+01    0.7864286041E+02    0.7697021484E+02    0    0
   24    2    1    2    0    0    0.5130057335E+01    0.1491065311E+02   -0.3411857128E+01    0.8135713959E+02    0.7974144745E+02    0    0
   15    2    3    3    0    0    0.1098948479E+02    0.2911589622E+02   -0.3026798010E+01    0.3131810188E+02    0.1777029991E+01    0    0
  -16    1    3    3    0    0   -0.1611954308E+02   -0.4402655029E+02    0.6438654900E+01    0.4732476044E+02    0.0000000000E+00    0    0
   16    1    4    4    0    0    0.1161836529E+02    0.4595971298E+02   -0.1106309414E+02    0.4867929459E+02    0.0000000000E+00    0    0
  -15    2    4    4    0    0   -0.6488307953E+01   -0.3104905891E+02    0.7651237488E+01    0.3267784500E+02    0.1777029991E+01    0    0
   16    1    5    5    0    0    0.5425934792E+01    0.1396424103E+02   -0.1234165311E+01    0.1503209782E+02    0.6103515625E-04    0    0
 -213    2    5    5    0    0    0.5563982487E+01    0.1515280056E+02   -0.1792751670E+01    0.1628723717E+02    0.1222642303E+01    0    0
 -211    1   10   10    0    0    0.2987370491E+01    0.7658136368E+01   -0.1488580585E+01    0.8355045319E+01    0.1395677477E+00    0    0
  111    1   10   10    0    0    0.2576612473E+01    0.7494664669E+01   -0.3041711748E+00    0.7932191849E+01    0.1349638999E+00    0    0
  -16    1    8    8    0    0   -0.1954633474E+01   -0.8547688484E+01    0.2011226416E+01    0.8996032715E+01    0.1012153589E-03    0    0
  -11    1    8    8    0    0   -0.3689687490E+01   -0.2038455772E+02    0.5238523960E+01    0.2136787605E+02    0.5390478764E-03    0    0
   12    1    8    8    0    0   -0.8442423940E+00   -0.2118035316E+01    0.4017884433E+00    0.2315222025E+01    0.2283726499E-03    0    0
</event>
<event>
   15 9999    1    0.9119999695E+02    0.7565275169E-02    0.1185000000E+00
   11   -1    0    0    0    0    0.0000000000E+00    0.0000000000E+00    0.8000000000E+02    0.8000000000E+02    0.5109988851E-03    0    0
  -11   -1    0    0    0    0    0.0000000000E+00    0.0000000000E+00   -0.8000000000E+02    0.8000000000E+02    0.5109988851E-03    0    0
  -24    2    1    2    0    0   -0.1876074314E+01    0.3526192188E+01   -0.5937028408E+01    0.7977172089E+02    0.7945014954E+02    0    0
   24    2    1    2    0    0    0.1876075029E+01   -0.3526193857E+01    0.5602499008E+01    0.7989374542E+02    0.7959691620E+02    0    0
   22    1    1    2    0    0   -0.7689531003E-06    0.1502839041E-05    0.3345294297E+00    0.3345294297E+00    0.0000000000E+00    0    0
   15    2    3    3    0    0   -0.3756787872E+02   -0.1217645454E+02    0.3394630194E+01    0.3967736053E+02    0.1777029991E+01    0    0
  -16    1    3    3    0    0    0.3569180679E+02    0.1570264626E+02   -0.9331658363E+01    0.4009436417E+02    0.0000000000E+00    0    0
   16    1    4    4    0    0   -0.1132362461E+02   -0.3696524811E+02    0.1686471558E+02    0.4217905426E+02    0.0000000000E+00    0    0
  -15    2    4    4    0    0    0.1319970036E+02    0.3343905640E+02   -0.1126221752E+02    0.3771469116E+02    0.1777029991E+01    0    0
   16    1    6    6    0    0   -0.8782866478E+01   -0.2859015942E+01    0.4597724378E+00    0.9247923851E+01    0.1495049946E-03    0    0
  -24    2    6    6    0    0   -0.2878649139E+02   -0.9317916870E+01    0.2934991360E+01    0.3043099785E+02    0.1394910574E+01    0    0
 -321    1   11   11    0    0   -0.1306722832E+02   -0.4195882320E+01    0.1819327116E+01    0.1385321426E+02    0.4936669469E+00    0    0
  130    1   11   11    0    0   -0.1571926308E+02   -0.5122035027E+01    0.1115664124E+01    0.1657778358E+02    0.4977200627E+00    0    0
  -16    1    9    9    0    0    0.1264760303E+02    0.3127981377E+02   -0.1024723434E+02    0.3526179886E+02    0.8631674427E-04    0    0
  211    1    9    9    0    0    0.5526172519E+00    0.2160558701E+01   -0.1015426874E+01    0.2454377890E+01    0.1395679861E+00    0    0
</event>
<event>
   18 9999    1    0.9119999695E+02    0.7565275169E-02    0.1185000000E+00
   11   -1    0    0    0    0    0.0000000000E+00    0.0000000000E+00    0.8000000000E+02    0.8000000000E+02    0.5109988851E-03    0    0
  -11   -1    0    0    0    0    0.0000000000E+00    0.0000000000E+00   -0.8000000000E+02    0.8000000000E+02    0.5109988851E-03    0    0
  -24    2    1    2    0    0    0.2760231733E+01   -0.1655869603E+01    0.4910696983E+01    0.8003282928E+02    0.7981715393E+02    0    0
   24    2    1    2    0    0   -0.2760231733E+01    0.1655869603E+01   -0.4910696983E+01    0.7996717072E+02    0.7975131989E+02    0    0
   15    2    3    3    0    0   -0.1524367213E+01   -0.2731346512E+02    0.3222883224E+02    0.4231081009E+02    0.1777029991E+01    0    0
  -16    1    3    3    0    0    0.4284598827E+01    0.2565759468E+02   -0.2731813622E+02    0.3772201538E+02    0.0000000000E+00    0    0
   16    1    4    4    0    0   -0.5502538681E+01   -0.3881996918E+02   -0.2581079721E+01    0.3929287338E+02    0.0000000000E+00    0    0
  -15    2    4    4    0    0    0.2742306709E+01    0.4047583771E+02   -0.2329617262E+01    0.4067430115E+02    0.1777029991E+01    0    0
   16    1    5    5    0    0   -0.3076814711E+00   -0.3082092047E+01    0.3783971071E+01    0.4890030384E+01    0.4786495119E-03    0    0
  -24    2    5    5    0    0   -0.1216745734E+01   -0.2423244667E+02    0.2844612885E+02    0.3742244339E+02    0.1601558566E+01    0    0
 -211    1   10   10    0    0    0.9273322672E-01   -0.7759752274E+00    0.1019319057E+01    0.1291985869E+01    0.1395679712E+00    0    0
  310    1   10   10    0    0   -0.4536907077E+00   -0.8408455849E+01    0.9304248810E+01    0.1255885029E+02    0.4977201521E+00    0    0
  111    1   10   10    0    0   -0.8557883501E+00   -0.1504801846E+02    0.1812256432E+02    0.2357160950E+02    0.1349638849E+00    0    0
  -16    1    8    8    0    0    0.9483750165E-01    0.1107008934E+01   -0.2423640490E+00    0.1137191057E+01    0.5725605297E-03    0    0
   24    2    8    8    0    0    0.2647577047E+01    0.3937042236E+02   -0.2087344646E+01    0.3953870773E+02    0.1383017898E+01    0    0
  211    1   15   15    0    0    0.9195954204E+00    0.1566815186E+02   -0.5680054426E+00    0.1570600986E+02    0.1395677924E+00    0    0
  130    1   15   15    0    0    0.5874759555E+00    0.1167225838E+02   -0.5972203016E+00    0.1171286297E+02    0.4977200627E+00    0    0
  111    1   15   15    0    0    0.1140505672E+01    0.1203001022E+02   -0.9221189618E+00    0.1211983585E+02    0.1349641234E+00    0    0
</event>
<event>
   22 9999    1    0.9119999695E+02    0.7565275169E-02    0.1185000000E+00
   11   -1    0    0    0    0    0.0000000000E+00    0.0000000000E+00    0.8000000000E+02    0.8000000000E+02    0.5109988851E-03    0    0
  -11   -1    0    0    0    0    0.0000000000E+00    0.0000000000E+00   -0.8000000000E+02    0.8000000000E+02    0.5109988851E-03    0    0
  -24    2    1    2    0    0    0.8287352562E+01    0.6788208008E+01    0.1156678772E+02    0.7809644318E+02    0.7648859406E+02    0    0
   24    2    1    2    0    0   -0.8287042618E+01   -0.6788068771E+01   -0.1156648540E+02    0.8190309906E+02    0.8037152100E+02    0    0
   22    1    1    2    0    0   -0.3104567004E-03   -0.1394705905E-03   -0.3023097815E-03    0.4552214814E-03    0.0000000000E+00    0    0
   15    2    3    3    0    0    0.1780129194E+01   -0.3186129951E+02    0.2040505219E+02    0.3791880035E+02    0.1777029991E+01    0    0
  -16    1    3    3    0    0    0.6507223606E+01    0.3864950943E+02   -0.8838265419E+01    0.4017764664E+02    0.0000000000E+00    0    0
   16    1    4    4    0    0   -0.1531793880E+02    0.4234637260E+01   -0.4405693436E+02    0.4683572388E+02    0.0000000000E+00    0    0
  -15    2    4    4    0    0    0.7030896187E+01   -0.1102270603E+02    0.3249045181E+02    0.3506737518E+02    0.1777029991E+01    0    0
   16    1    6    6    0    0    0.2426322084E-02   -0.5530711412E+00    0.3859716058E+00    0.6744387746E+00    0.0000000000E+00    0    0
  -24    2    6    6    0    0    0.1777773023E+01   -0.3130948448E+02    0.2001988411E+02    0.3724585342E+02    0.1735964775E+01    0    0
 -211    1   11   11    0    0    0.4548677206E+00   -0.6100528717E+01    0.4020691872E+01    0.7321803093E+01    0.1395680159E+00    0    0
 -211    1   11   11    0    0    0.3886334300E+00   -0.4466508389E+01    0.2722512960E+01    0.5247122288E+01    0.1395680010E+00    0    0
  211    1   11   11    0    0    0.6856976748E+00   -0.1368419743E+02    0.8466409683E+01    0.1610673714E+02    0.1395679861E+00    0    0
  111    1   11   11    0    0    0.3393831849E+00   -0.4212420940E+01    0.2889462948E+01    0.5121218681E+01    0.1349640042E+00    0    0
  111    1   11   11    0    0    0.1565818675E-01   -0.1608326912E+01    0.1034038305E+01    0.1916875362E+01    0.1349639893E+00    0    0
  111    1   11   11    0    0   -0.1064671129E+00   -0.1237502813E+01    0.8867691755E+00    0.1532097697E+01    0.1349641234E+00    0    0
  -16    1    9    9    0    0    0.2721676588E+01   -0.4324850082E+01    0.1390364647E+02    0.1481294155E+02    0.2729575208E-03    0    0
   24    2    9    9    0    0    0.4309496403E+01   -0.6698289394E+01    0.1858808327E+02    0.2025581360E+02    0.1158577919E+01    0    0
  211    1   19   19    0    0    0.1378368497E+01   -0.1678996682E+01    0.4680245399E+01    0.5161695957E+01    0.1395679861E+00    0    0
  111    1   19   19    0    0    0.2282748699E+01   -0.3574779987E+01    0.1085711384E+02    0.1165697765E+02    0.1349642277E+00    0    0
   22    1   19   19    0    0    0.6483792067E+00   -0.1444512844E+01    0.3050723553E+01    0.3437139273E+01    0.1614838402E-03    0    0
</event>
<event>
   18 9999    1    0.9119999695E+02    0.7565275169E-02    0.1185000000E+00
   11   -1    0    0    0    0    0.0000000000E+00    0.0000000000E+00    0.8000000000E+02    0.8000000000E+02    0.5109988851E-03    0    0
  -11   -1    0    0    0    0    0.0000000000E+00    0.0000000000E+00   -0.8000000000E+02    0.8000000000E+02    0.5109988851E-03    0    0
  -24    2    1    2    0    0   -0.4567607403E+01   -0.2672386360E+02    0.3327334976E+02    0.7412758636E+02    0.6043802643E+02    0    0
   24    2    1    2    0    0    0.4566755772E+01    0.2672307777E+02   -0.3326964569E+02    0.8586853027E+02    0.7437444305E+02    0    0
   22    1    1    2    0    0    0.8485136786E-03    0.7879062905E-03   -0.3702772083E-02    0.3879599506E-02    0.0000000000E+00    0    0
   15    2    3    3    0    0   -0.2065264463E+01    0.2319320202E+01   -0.1626219559E+02    0.1665116692E+02    0.1777029991E+01    0    0
  -16    1    3    3    0    0   -0.2502343178E+01   -0.2904318428E+02    0.4953554153E+02    0.5747641373E+02    0.0000000000E+00    0    0
   16    1    4    4    0    0   -0.3201793671E+02    0.2626230812E+02   -0.1044192791E+02    0.4270703888E+02    0.0000000000E+00    0    0
  -15    2    4    4    0    0    0.3658469391E+02    0.4607701302E+00   -0.2282771873E+02    0.4316149521E+02    0.1777029991E+01    0    0
   16    1    6    6    0    0   -0.1128194809E+01    0.1204405308E+01   -0.7845493317E+01    0.8017180443E+01    0.9406149184E-04    0    0
  -24    2    6    6    0    0   -0.9371509552E+00    0.1115006208E+01   -0.8417342186E+01    0.8634642601E+01    0.1258539557E+01    0    0
 -321    1   11   11    0    0   -0.5936627388E+00    0.4527035356E+00   -0.5782192707E+01    0.5851054192E+01    0.4936670661E+00    0    0
  310    1   11   11    0    0   -0.3434882760E+00    0.6623027921E+00   -0.2635149479E+01    0.2783588886E+01    0.4977200627E+00    0    0
  -16    1    9    9    0    0    0.3030261755E+01    0.2830808461E+00   -0.2128648996E+01    0.3713996172E+01    0.4315837286E-03    0    0
   24    2    9    9    0    0    0.3355587006E+02    0.1777074039E+00   -0.2069996834E+02    0.3944919586E+02    0.1312415242E+01    0    0
  211    1   15   15    0    0    0.1593427372E+02   -0.1363532692E+00   -0.9513343811E+01    0.1855917168E+02    0.1395679116E+00    0    0
  111    1   15   15    0    0    0.1564560223E+02    0.4224849343E+00   -0.9687066078E+01    0.1840708733E+02    0.1349641979E+00    0    0
   22    1   15   15    0    0    0.1975994110E+01   -0.1084242389E+00   -0.1499556661E+01    0.2482937574E+01    0.1220703125E-03    0    0
</event>
<event>
   19 9999    1    0.9119999695E+02    0.7565275169E-02    0.1185000000E+00
   11   -1    0    0    0    0    0.0000000000E+00    0.0000000000E+00    0.8000000000E+02    0.8000000000E+02    0.5109988851E-03    0    0
  -11   -1    0    0    0    0    0.0000000000E+00    0.0000000000E+00   -0.8000000000E+02    0.8000000000E+02    0.5109988851E-03    0    0
  -24    2    1    2    0    0    0.6269074082E+00   -0.1097569466E+02    0.2108054638E+01    0.8203957367E+02    0.8127230835E+02    0    0
   24    2    1    2    0    0   -0.1452593654E+00    0.1153806686E+02   -0.2094540119E+01    0.7719966888E+02    0.7630368805E+02    0    0
   22    1    1    2    0    0   -0.4816311300E+00   -0.5623586774E+00    0.6801516749E-02    0.7404472232E+00    0.0000000000E+00    0    0
   22    1    1    2    0    0   -0.1690219324E-04   -0.1358512600E-04   -0.2031606995E-01    0.2031608112E-01    0.0000000000E+00    0    0
   15    2    3    3    0    0    0.3479816437E+02   -0.1113062191E+02   -0.1965678215E+02    0.4152529144E+02    0.1777029991E+01    0    0
  -16    1    3    3    0    0   -0.3417125702E+02    0.1549272537E+00    0.2176483727E+02    0.4051427841E+02    0.0000000000E+00    0    0
   16    1    4    4    0    0    0.1154380322E+02    0.2998538017E+02    0.2616796875E+02    0.4143844604E+02    0.0000000000E+00    0    0
  -15    2    4    4    0    0   -0.1168906212E+02   -0.1844731331E+02   -0.2826250839E+02    0.3576121902E+02    0.1777029991E+01    0    0
   16    1    7    7    0    0    0.1068951702E+02   -0.3396594286E+01   -0.5992100239E+01    0.1271644211E+02    0.6175569724E-03    0    0
  -24    2    7    7    0    0    0.2411001396E+02   -0.7734465599E+01   -0.1366545486E+02    0.2881048203E+02    0.1478001475E+01    0    0
  310    1   12   12    0    0    0.1041951752E+02   -0.2970699787E+01   -0.5949134350E+01    0.1237058258E+02    0.4977199435E+00    0    0
 -211    1   12   12    0    0    0.3923142195E+01   -0.1159789920E+01   -0.2137427330E+01    0.4617816925E+01    0.1395678371E+00    0    0
  310    1   12   12    0    0    0.9767354965E+01   -0.3603976250E+01   -0.5578894138E+01    0.1182208347E+02    0.4977200627E+00    0    0
  -16    1   10   10    0    0   -0.6567085743E+01   -0.1038087559E+02   -0.1600279617E+02    0.2017371178E+02    0.8897326188E-04    0    0
   24    2   10   10    0    0   -0.5122436047E+01   -0.8067161560E+01   -0.1226082420E+02    0.1558891201E+02    0.1169581294E+01    0    0
  321    1   17   17    0    0   -0.1369778752E+01   -0.2115608454E+01   -0.3038807392E+01    0.3978712082E+01    0.4936669469E+00    0    0
  310    1   17   17    0    0   -0.3752658844E+01   -0.5951556206E+01   -0.9222021103E+01    0.1161020470E+02    0.4977200627E+00    0    0
</event>
<event>
   18 9999    1    0.9119999695E+02    0.7565275169E-02    0.1185000000E+00
   11   -1    0    0    0    0    0.0000000000E+00    0.0000000000E+00    0.8000000000E+02    0.8000000000E+02    0.5109988851E-03    0    0
  -11   -1    0    0    0    0    0.0000000000E+00    0.0000000000E+00   -0.8000000000E+02    0.8000000000E+02    0.5109988851E-03    0    0
  -24    2    1    2    0    0   -0.8365379572E+00    0.3578382492E+01    0.1432432938E+02    0.7907028198E+02    0.7767508698E+02    0    0
   24    2    1    2    0    0    0.8365708590E+00   -0.3578305960E+01   -0.1432695198E+02    0.8092609406E+02    0.7956298065E+02    0    0
   22    1    1    2    0    0   -0.7723180715E-05    0.1541047709E-05    0.3116884036E-02    0.3116894048E-02    0.0000000000E+00    0    0
   22    1    1    2    0    0   -0.2518508700E-04   -0.7793286204E-04   -0.4936237819E-03    0.5003721453E-03    0.0000000000E+00    0    0
   15    2    3    3    0    0    0.1220260859E+01   -0.3702593994E+02    0.7658096313E+01    0.3787101364E+02    0.1777029991E+01    0    0
  -16    1    3    3    0    0   -0.2056798697E+01    0.4060432434E+02    0.6666232586E+01    0.4119927216E+02    0.0000000000E+00    0    0
   16    1    4    4    0    0   -0.2191526604E+02    0.7377333641E+01    0.2506448555E+02    0.3410179520E+02    0.0000000000E+00    0    0
  -15    2    4    4    0    0    0.2275183678E+02   -0.1095563984E+02   -0.3939143753E+02    0.4682430267E+02    0.1777029991E+01    0    0
   16    1    7    7    0    0    0.1870810688E+00   -0.1787108302E+01    0.2556335926E+00    0.1814966679E+01    0.4474755260E-03    0    0
  -24    2    7    7    0    0    0.1033227801E+01   -0.3524028778E+02    0.7402763844E+01    0.3605753708E+02    0.1549012899E+01    0    0
  221    1   12   12    0    0    0.7088360190E+00   -0.1947502899E+02    0.4359563828E+01    0.1997714233E+02    0.5487999320E+00    0    0
 -211    1   12   12    0    0    0.3093807101E+00   -0.1076788807E+02    0.1726645231E+01    0.1091072464E+02    0.1395677477E+00    0    0
  111    1   12   12    0    0    0.1501105167E-01   -0.4997369766E+01    0.1316554785E+01    0.5169667244E+01    0.1349640638E+00    0    0
  -16    1   10   10    0    0    0.6016294003E+01   -0.3565591574E+01   -0.1126307392E+02    0.1325767899E+02    0.2200653835E-03    0    0
  -11    1   10   10    0    0    0.1397153187E+02   -0.6368387699E+01   -0.2409506607E+02    0.2857152939E+02    0.5263729254E-03    0    0
   12    1   10   10    0    0    0.2764907598E+01   -0.1022091985E+01   -0.4034851074E+01    0.4996940136E+01    0.1726334885E-03    0    0
</event>
<event>
   19 9999    1    0.9119999695E+02    0.7565275169E-02    0.1185000000E+00
   11   -1    0    0    0    0    0.0000000000E+00    0.0000000000E+00    0.8000000000E+02    0.8000000000E+02    0.5109988851E-03    0    0
  -11   -1    0    0    0    0    0.0000000000E+00    0.0000000000E+00   -0.8000000000E+02    0.8000000000E+02    0.5109988851E-03    0    0
  -24    2    1    2    0    0    0.2030461550E+01    0.9845351219E+01   -0.2563067198E+01    0.8100992584E+02    0.8034291840E+02    0    0
   24    2    1    2    0    0   -0.1955164790E+01   -0.9799798965E+01    0.2733527660E+01    0.7877315521E+02    0.7808892059E+02    0    0
   22    1    1    2    0    0   -0.1852786751E-02   -0.6529837992E-04   -0.1133325398E+00    0.1133477017E+00    0.0000000000E+00    0    0
   22    1    1    2    0    0   -0.7344401628E-01   -0.4548722133E-01   -0.5712788925E-01    0.1035698131E+00    0.0000000000E+00    0    0
   15    2    3    3    0    0    0.8164751053E+01    0.2235211945E+02    0.1385581970E+02    0.2759387970E+02    0.1777029991E+01    0    0
  -16    1    3    3    0    0   -0.1152530098E+02   -0.2631793213E+02   -0.2337565041E+02    0.3703899384E+02    0.0000000000E+00    0    0
   22    1    3    3    0    0    0.5391012192E+01    0.1381116581E+02    0.6956764221E+01    0.1637705421E+02    0.0000000000E+00    0    0
   16    1    4    4    0    0    0.2820460892E+02    0.1688089943E+02    0.1570648956E+02    0.3643018723E+02    0.0000000000E+00    0    0
  -15    2    4    4    0    0   -0.3015977287E+02   -0.2668069839E+02   -0.1297296238E+02    0.4234297180E+02    0.1777029991E+01    0    0
   16    1    7    7    0    0    0.6931559086E+01    0.1929247856E+02    0.1153463268E+02    0.2352221107E+02    0.1495049946E-03    0    0
   11    1    7    7    0    0    0.1162241459E+01    0.3007566214E+01    0.2138131380E+01    0.3868834257E+01    0.5033087800E-03    0    0
  -12    1    7    7    0    0    0.7129582018E-01    0.5302204192E-01    0.1836468577E+00    0.2040124536E+00    0.3097195877E-03    0    0
  -16    1   11   11    0    0   -0.7813253403E+01   -0.6869760990E+01   -0.3670957088E+01    0.1103251839E+02    0.4315837286E-03    0    0
   24    2   11   11    0    0   -0.2234770775E+02   -0.1981198692E+02   -0.9302515984E+01    0.3131212044E+02    0.1406099916E+01    0    0
  321    1   16   16    0    0   -0.6222227573E+01   -0.5614030361E+01   -0.2702301979E+01    0.8819273949E+01    0.4936670363E+00    0    0
  211    1   16   16    0    0   -0.5466575146E+01   -0.5175122738E+01   -0.2020653486E+01    0.7795374393E+01    0.1395687610E+00    0    0
 -211    1   16   16    0    0   -0.1065890598E+02   -0.9022834778E+01   -0.4579560757E+01    0.1469747162E+02    0.1395681351E+00    0    0
</event>
<event>
   22 9999    1    0.9119999695E+02    0.7565275169E-02    0.1185000000E+00
   11   -1    0    0    0    0    0.0000000000E+00    0.0000000000E+00    0.8000000000E+02    0.8000000000E+02    0.5109988851E-03    0    0
  -11   -1    0    0    0    0    0.0000000000E+00    0.0000000000E+00   -0.8000000000E+02    0.8000000000E+02    0.5109988851E-03    0    0
  -24    2    1    2    0    0   -0.6966790676E+01    0.8163866997E+01   -0.1180474401E+01    0.7944829559E+02    0.7871119690E+02    0    0
   24    2    1    2    0    0    0.6967057228E+01   -0.8163637161E+01    0.1169487834E+01    0.8053160858E+02    0.7980468750E+02    0    0
   22    1    1    2    0    0   -0.2414057235E-03   -0.2629905066E-03    0.1553910132E-01    0.1554320101E-01    0.0000000000E+00    0    0
   22    1    1    2    0    0   -0.2554631101E-04    0.3301881225E-04   -0.4552498460E-02    0.4552689847E-02    0.0000000000E+00    0    0
   15    2    3    3    0    0   -0.7873718262E+01   -0.2434889317E+01    0.3796157074E+02    0.3888653946E+02    0.1777029991E+01    0    0
  -16    1    3    3    0    0    0.9069275260E+00    0.1059875679E+02   -0.3914204788E+02    0.4056175613E+02    0.0000000000E+00    0    0
   16    1    4    4    0    0   -0.1830489922E+02   -0.2908618546E+02   -0.2156834030E+02    0.4057423782E+02    0.0000000000E+00    0    0
  -15    2    4    4    0    0    0.2527195549E+02    0.2092254829E+02    0.2273782730E+02    0.3995737076E+02    0.1777029991E+01    0    0
   16    1    7    7    0    0   -0.1195002675E+01   -0.6863968372E+00    0.6192929745E+01    0.6344410896E+01    0.8631674427E-04    0    0
  -24    2    7    7    0    0   -0.6679025650E+01   -0.1748588443E+01    0.3177013779E+02    0.3254365921E+02    0.1442635894E+01    0    0
 -211    1   12   12    0    0   -0.1171422243E+01   -0.3943274617E+00    0.5792501450E+01    0.5924548626E+01    0.1395680010E+00    0    0
 -211    1   12   12    0    0   -0.1923889279E+01   -0.5260734558E+00    0.1014680099E+02    0.1034191227E+02    0.1395679861E+00    0    0
 -211    1   12   12    0    0   -0.5479277372E+00   -0.1807845384E+00    0.1792144656E+01    0.1887900829E+01    0.1395679861E+00    0    0
  211    1   12   12    0    0   -0.1384750724E+01   -0.4501458406E+00    0.5651359081E+01    0.5837594032E+01    0.1395679563E+00    0    0
  211    1   12   12    0    0   -0.1651035547E+01   -0.1972571462E+00    0.8387331963E+01    0.8551704407E+01    0.1395680159E+00    0    0
  -16    1   10   10    0    0    0.3251042366E+01    0.2501977205E+01    0.2513835192E+01    0.4811292171E+01    0.2862802648E-03    0    0
   24    2   10   10    0    0    0.2202190781E+02    0.1842139435E+02    0.2022488785E+02    0.3514765167E+02    0.1413874865E+01    0    0
  310    1   19   19    0    0    0.8754413605E+01    0.7358596802E+01    0.8044913292E+01    0.1399132061E+02    0.4977201223E+00    0    0
  211    1   19   19    0    0    0.6488066673E+01    0.5578754425E+01    0.5735144615E+01    0.1030188656E+02    0.1395680308E+00    0    0
  310    1   19   19    0    0    0.6779428482E+01    0.5484044552E+01    0.6444829464E+01    0.1085444355E+02    0.4977200031E+00    0    0
</event>
<event>
   22 9999    1    0.9119999695E+02    0.7565275169E-02    0.1185000000E+00
   11   -1    0    0    0    0    0.0000000000E+00    0.0000000000E+00    0.8000000000E+02    0.8000000000E+02    0.5109988851E-03    0    0
  -11   -1    0    0    0    0    0.0000000000E+00    0.0000000000E+00   -0.8000000000E+02    0.8000000000E+02    0.5109988851E-03    0    0
  -24    2    1    2    0    0    0.1852325916E+01    0.3404967070E+01   -0.4990529060E+01    0.7969209290E+02    0.7944116974E+02    0    0
   24    2    1    2    0    0   -0.1852960587E+01   -0.3402914762E+01    0.5215387821E+01    0.8008303833E+02    0.7981904602E+02    0    0
   22    1    1    2    0    0    0.6346684531E-03   -0.2052282449E-02   -0.2248584628E+00    0.2248687148E+00    0.0000000000E+00    0    0
   15    2    3    3    0    0   -0.8285425186E+01    0.3846949387E+02   -0.1449561691E+02    0.4197417068E+02    0.1777029991E+01    0    0
  -16    1    3    3    0    0    0.1013775158E+02   -0.3506452560E+02    0.9505087852E+01    0.3771792221E+02    0.0000000000E+00    0    0
   16    1    4    4    0    0    0.3662645340E+02    0.1183067799E+02    0.2482762098E+01    0.3856975555E+02    0.0000000000E+00    0    0
  -15    2    4    4    0    0   -0.3847941208E+02   -0.1523359299E+02    0.2732625723E+01    0.4151328278E+02    0.1777029991E+01    0    0
   16    1    6    6    0    0   -0.3123660803E+01    0.1521251965E+02   -0.5746630669E+01    0.1655903816E+02    0.8665326459E-04    0    0
  -24    2    6    6    0    0   -0.5162090778E+01    0.2325848961E+02   -0.8749556541E+01    0.2541678429E+02    0.1361496329E+01    0    0
 -211    1   11   11    0    0   -0.2734140873E+01    0.1238008785E+02   -0.4387650967E+01    0.1341689491E+02    0.1395678222E+00    0    0
  310    1   11   11    0    0   -0.1550895333E+01    0.6493381500E+01   -0.2357858419E+01    0.7097640514E+01    0.4977200627E+00    0    0
  111    1   11   11    0    0   -0.8770548105E+00    0.4385019302E+01   -0.2004047394E+01    0.4902248859E+01    0.1349640638E+00    0    0
  -16    1    9    9    0    0   -0.7475755692E+01   -0.2973455191E+01    0.3793738782E+00    0.8054332733E+01    0.0000000000E+00    0    0
   24    2    9    9    0    0   -0.3100517273E+02   -0.1226073742E+02    0.2353359461E+01    0.3346058655E+02    0.1557560921E+01    0    0
  211    1   16   16    0    0   -0.5323960304E+01   -0.2112042665E+01    0.4591639638E+00    0.5747659683E+01    0.1395680010E+00    0    0
  211    1   16   16    0    0   -0.2283065081E+01   -0.9937549233E+00    0.7324778289E-01    0.2494950771E+01    0.1395680010E+00    0    0
  211    1   16   16    0    0   -0.8308204651E+01   -0.3311069965E+01    0.4028380215E+00    0.8953837395E+01    0.1395679563E+00    0    0
 -211    1   16   16    0    0   -0.1935472727E+01   -0.7492995858E+00    0.3705207705E+00    0.2112881660E+01    0.1395680457E+00    0    0
 -211    1   16   16    0    0   -0.4035337925E+01   -0.1621272922E+01    0.4387952685E+00    0.4373156548E+01    0.1395680159E+00    0    0
  111    1   16   16    0    0   -0.9119132042E+01   -0.3473297358E+01    0.6087935567E+00    0.9778099060E+01    0.1349640042E+00    0    0
</event>
<event>
   16 9999    1    0.9119999695E+02    0.7565275169E-02    0.1185000000E+00
   11   -1    0    0    0    0    0.0000000000E+00    0.0000000000E+00    0.8000000000E+02    0.8000000000E+02    0.5109988851E-03    0    0
  -11   -1    0    0    0    0    0.0000000000E+00    0.0000000000E+00   -0.8000000000E+02    0.8000000000E+02    0.5109988851E-03    0    0
  -24    2    1    2    0    0   -0.1720973551E+00    0.3710207224E+01   -0.3452110767E+01    0.8050878143E+02    0.8034893799E+02    0    0
   24    2    1    2    0    0    0.1720973551E+00   -0.3710207224E+01    0.3452110767E+01    0.7949121857E+02    0.7932932281E+02    0    0
   15    2    3    3    0    0   -0.3521423721E+02    0.1364759636E+02   -0.1725205803E+02    0.4155828094E+02    0.1777029991E+01    0    0
  -16    1    3    3    0    0    0.3504214096E+02   -0.9937389374E+01    0.1379994678E+02    0.3895050430E+02    0.0000000000E+00    0    0
   16    1    4    4    0    0    0.3013722992E+02    0.1749326324E+02    0.1888083076E+02    0.3963272095E+02    0.0000000000E+00    0    0
  -15    2    4    4    0    0   -0.2996513176E+02   -0.2120347023E+02   -0.1542872047E+02    0.3985849380E+02    0.1777029991E+01    0    0
   16    1    5    5    0    0   -0.1879970551E+02    0.7428480625E+01   -0.8800160408E+01    0.2204663467E+02    0.4401307669E-03    0    0
  -24    2    5    5    0    0   -0.1641591644E+02    0.6219653130E+01   -0.8452575684E+01    0.1951328087E+02    0.1075042129E+01    0    0
 -211    1   10   10    0    0   -0.4579665661E+01    0.1517099023E+01   -0.2220091105E+01    0.5312551975E+01    0.1395684034E+00    0    0
  111    1   10   10    0    0   -0.4940933704E+01    0.2242284060E+01   -0.2359049797E+01    0.5918107510E+01    0.1349641979E+00    0    0
   22    1   10   10    0    0   -0.6895315647E+01    0.2460268974E+01   -0.3873433590E+01    0.8282619476E+01    0.2990099892E-03    0    0
  -16    1    8    8    0    0   -0.1323772049E+02   -0.9299304962E+01   -0.7697422028E+01    0.1791548538E+02    0.2441406250E-03    0    0
  -13    1    8    8    0    0   -0.7350350380E+01   -0.4971994400E+01   -0.3347231150E+01    0.9484909058E+01    0.1056590304E+00    0    0
   14    1    8    8    0    0   -0.9378240585E+01   -0.6933004379E+01   -0.4384674549E+01    0.1245966816E+02    0.1220703125E-03    0    0
</event>
<event>
   23 9999    1    0.9119999695E+02    0.7565275169E-02    0.1185000000E+00
   11   -1    0    0    0    0    0.0000000000E+00    0.0000000000E+00    0.8000000000E+02    0.8000000000E+02    0.5109988851E-03    0    0
  -11   -1    0    0    0    0    0.0000000000E+00    0.0000000000E+00   -0.8000000000E+02    0.8000000000E+02    0.5109988851E-03    0    0
  -24    2    1    2    0    0   -0.2431291103E+01    0.4491368771E+01   -0.1306588054E+01    0.7829479980E+02    0.7811711884E+02    0    0
   24    2    1    2    0    0    0.2431266546E+01   -0.4491392612E+01    0.2732853651E+01    0.8027893829E+02    0.8006969452E+02    0    0
   22    1    1    2    0    0    0.2448226041E-04    0.2375290933E-04   -0.1426265597E+01    0.1426265597E+01    0.0000000000E+00    0    0
   15    2    3    3    0    0    0.9713358879E+01   -0.1590222168E+02    0.1295490170E+02    0.2276439476E+02    0.1777029991E+01    0    0
  -16    1    3    3    0    0   -0.1903332710E+02    0.2672140312E+02   -0.2503116989E+02    0.4126572418E+02    0.0000000000E+00    0    0
   22    1    3    3    0    0    0.6888676643E+01   -0.6327811718E+01    0.1076967907E+02    0.1426467991E+02    0.0000000000E+00    0    0
   16    1    4    4    0    0    0.1093503284E+02   -0.3968964005E+02    0.1195640469E+02    0.4286954880E+02    0.0000000000E+00    0    0
  -15    2    4    4    0    0   -0.8503766060E+01    0.3519824600E+02   -0.9223550797E+01    0.3740938950E+02    0.1777029991E+01    0    0
   16    1    6    6    0    0    0.2154235125E+01   -0.4084588528E+01    0.3064627409E+01    0.5542252541E+01    0.1585739810E-03    0    0
  -24    2    6    6    0    0    0.7559515953E+01   -0.1181827927E+02    0.9890796661E+01    0.1722306633E+02    0.1409921288E+01    0    0
 -211    1   12   12    0    0    0.3635971785E+01   -0.5695951939E+01    0.4216525555E+01    0.7966352463E+01    0.1395680159E+00    0    0
  111    1   12   12    0    0    0.2960731745E+01   -0.4950481892E+01    0.4804872036E+01    0.7508546829E+01    0.1349646151E+00    0    0
   22    1   12   12    0    0    0.9628135562E+00   -0.1171847701E+01    0.8693997264E+00    0.1748169065E+01    0.1977765060E-03    0    0
  -16    1   10   10    0    0   -0.3418884277E+00    0.9636061788E+00   -0.2341659069E+00    0.1048931956E+01    0.1321449872E-04    0    0
   24    2   10   10    0    0   -0.8162212372E+01    0.3423602676E+02   -0.8989748001E+01    0.3636193085E+02    0.1626995921E+01    0    0
  211    1   17   17    0    0   -0.2356726170E+01    0.8957496643E+01   -0.2386229992E+01    0.9565797806E+01    0.1395679414E+00    0    0
  211    1   17   17    0    0   -0.2412010670E+01    0.9292377472E+01   -0.2567648411E+01    0.9938730240E+01    0.1395680308E+00    0    0
 -211    1   17   17    0    0   -0.9210038185E+00    0.4099317551E+01   -0.1189877629E+01    0.4368974686E+01    0.1395680010E+00    0    0
  111    1   17   17    0    0   -0.1979624510E+01    0.9116107941E+01   -0.2186489344E+01    0.9582343102E+01    0.1349639893E+00    0    0
  111    1   17   17    0    0   -0.2435204834E+00    0.1054728270E+01   -0.2399959117E+00    0.1116945505E+01    0.1349639893E+00    0    0
  111    1   17   17    0    0   -0.2493269593E+00    0.1715999126E+01   -0.4195066690E+00    0.1789138913E+01    0.1349640042E+00    0    0
</event>
<event>
   18 9999    1    0.9119999695E+02    0.7565275169E-02    0.1185000000E+00
   11   -1    0    0    0    0    0.0000000000E+00    0.0000000000E+00    0.8000000000E+02    0.8000000000E+02    0.5109988851E-03    0    0
  -11   -1    0    0    0    0    0.0000000000E+00    0.0000000000E+00   -0.8000000000E+02    0.8000000000E+02    0.5109988851E-03    0    0
  -24    2    1    2    0    0   -0.1349816513E+02    0.1478125215E+01    0.2512357521E+02    0.8752399445E+02    0.8273373413E+02    0    0
   24    2    1    2    0    0    0.1349816513E+02   -0.1478125215E+01   -0.2512357521E+02    0.7247600555E+02    0.6661225128E+02    0    0
   15    2    3    3    0    0    0.2040524632E+00   -0.3483277893E+02    0.3289454651E+02    0.4794343567E+02    0.1777029991E+01    0    0
  -16    1    3    3    0    0   -0.1370221806E+02    0.3631090546E+02   -0.7770970345E+01    0.3958055878E+02    0.0000000000E+00    0    0
   16    1    4    4    0    0    0.1913282013E+02   -0.3027885246E+02   -0.2388243294E+02    0.4304932404E+02    0.0000000000E+00    0    0
  -15    2    4    4    0    0   -0.5634654522E+01    0.2880072784E+02   -0.1241141915E+01    0.2942667961E+02    0.1777029991E+01    0    0
   16    1    5    5    0    0   -0.5429841205E-01   -0.2676271439E+01    0.2169351578E+01    0.3445499182E+01    0.4958519712E-03    0    0
  -24    2    5    5    0    0    0.2583588958E+00   -0.3215787888E+02    0.3072648811E+02    0.4449982452E+02    0.1386131167E+01    0    0
 -321    1   10   10    0    0   -0.3836761042E-01   -0.1298652458E+02    0.1224346638E+02    0.1785490036E+02    0.4936669767E+00    0    0
 -211    1   10   10    0    0    0.1583008170E+00   -0.7196513176E+01    0.7273415089E+01    0.1023410511E+02    0.1395680159E+00    0    0
  321    1   10   10    0    0    0.1384256631E+00   -0.1197483730E+02    0.1120960331E+02    0.1641081238E+02    0.4936670065E+00    0    0
  -16    1    8    8    0    0   -0.8375058770E+00    0.3366723776E+01   -0.3698521852E+00    0.3488987684E+01    0.4358782026E-03    0    0
   24    2    8    8    0    0   -0.4797370434E+01    0.2543513680E+02   -0.8713386059E+00    0.2593885040E+02    0.1450436234E+01    0    0
  130    1   15   15    0    0   -0.1126962423E+01    0.6808117390E+01   -0.2851274312E+00    0.6924560070E+01    0.4977201521E+00    0    0
  211    1   15   15    0    0   -0.6631140709E+00    0.4580966949E+01   -0.4254453629E-01    0.4631011486E+01    0.1395680755E+00    0    0
  130    1   15   15    0    0   -0.3007294178E+01    0.1404605389E+02   -0.5436666608E+00    0.1438327980E+02    0.4977198839E+00    0    0
</event>
<event>
   19 9999    1    0.9119999695E+02    0.7565275169E-02    0.1185000000E+00
   11   -1    0    0    0    0    0.0000000000E+00    0.0000000000E+00    0.8000000000E+02    0.8000000000E+02    0.5109988851E-03    0    0
  -11   -1    0    0    0    0    0.0000000000E+00    0.0000000000E+00   -0.8000000000E+02    0.8000000000E+02    0.5109988851E-03    0    0
  -24    2    1    2    0    0    0.3848975897E+01    0.2373961210E+01    0.2359223068E+00    0.7945508575E+02    0.7932594299E+02    0    0
   24    2    1    2    0    0   -0.3856695175E+01   -0.2369242191E+01   -0.2351393104E+00    0.8053324890E+02    0.8040560913E+02    0    0
   22    1    1    2    0    0    0.7847567089E-02   -0.4961243831E-02    0.1462072483E-02    0.9398718365E-02    0.0000000000E+00    0    0
   22    1    1    2    0    0   -0.1282758312E-03    0.2421365061E-03   -0.2245066222E-02    0.2261726419E-02    0.0000000000E+00    0    0
   15    2    3    3    0    0    0.9245720863E+01   -0.3642794418E+02   -0.1006521511E+02    0.3894797516E+02    0.1777029991E+01    0    0
  -16    1    3    3    0    0   -0.5396745205E+01    0.3880190277E+02    0.1030113792E+02    0.4050711060E+02    0.0000000000E+00    0    0
   16    1    4    4    0    0   -0.3249081421E+02   -0.1353652573E+02   -0.2317331314E+02    0.4214134598E+02    0.0000000000E+00    0    0
  -15    2    4    4    0    0    0.2863411713E+02    0.1116728401E+02    0.2293817329E+02    0.3839190674E+02    0.1777029991E+01    0    0
   16    1    7    7    0    0    0.4833600044E+01   -0.2048331261E+02   -0.6208797932E+01    0.2194262886E+02    0.1726334885E-03    0    0
 -213    2    7    7    0    0    0.4412485123E+01   -0.1594606400E+02   -0.3856813669E+01    0.1700687981E+02    0.7822763324E+00    0    0
 -211    1   12   12    0    0    0.3874819517E+01   -0.1390621471E+02   -0.3134128809E+01    0.1477292442E+02    0.1395678520E+00    0    0
  111    1   12   12    0    0    0.5376651287E+00   -0.2039847136E+01   -0.7226842046E+00    0.2233953238E+01    0.1349641085E+00    0    0
  -16    1   10   10    0    0    0.5520199299E+01    0.2510583878E+01    0.4451645851E+01    0.7522817612E+01    0.2407796273E-03    0    0
   24    2   10   10    0    0    0.2311504555E+02    0.8657139778E+01    0.1848743057E+02    0.3087060165E+02    0.1399121404E+01    0    0
  130    1   16   16    0    0    0.9082120895E+01    0.3431264400E+01    0.7297610760E+01    0.1215571308E+02    0.4977199137E+00    0    0
  211    1   16   16    0    0    0.2054151773E+01    0.5392553806E+00    0.1549480557E+01    0.2632623196E+01    0.1395678222E+00    0    0
  310    1   16   16    0    0    0.1197877502E+02    0.4686621189E+01    0.9640341759E+01    0.1608226967E+02    0.4977200627E+00    0    0
</event>
<event>
   19 9999    1    0.9119999695E+02    0.7565275169E-02    0.1185000000E+00
   11   -1    0    0    0    0    0.0000000000E+00    0.0000000000E+00    0.8000000000E+02    0.8000000000E+02    0.5109988851E-03    0    0
  -11   -1    0    0    0    0    0.0000000000E+00    0.0000000000E+00   -0.8000000000E+02    0.8000000000E+02    0.5109988851E-03    0    0
  -24    2    1    2    0    0    0.2338478279E+02    0.6324267983E+00    0.1889032173E+02    0.8079033661E+02    0.7498657227E+02    0    0
   24    2    1    2    0    0   -0.2338481522E+02   -0.6324161887E+00   -0.1889002991E+02    0.7920937347E+02    0.7328057098E+02    0    0
   22    1    1    2    0    0    0.3245841071E-04   -0.1056853216E-04   -0.2923306020E-03    0.2943168802E-03    0.0000000000E+00    0    0
   15    2    3    3    0    0   -0.1199917984E+02   -0.2304770851E+02    0.2692682648E+02    0.3746183395E+02    0.1777029991E+01    0    0
  -16    1    3    3    0    0    0.3538396072E+02    0.2368013573E+02   -0.8036503792E+01    0.4332850266E+02    0.0000000000E+00    0    0
   16    1    4    4    0    0   -0.2314542580E+02   -0.2404003143E+02    0.1611704636E+02    0.3705931854E+02    0.0000000000E+00    0    0
  -15    2    4    4    0    0   -0.2393890023E+00    0.2340761566E+02   -0.3500707626E+02    0.4215005112E+02    0.1777029991E+01    0    0
   16    1    6    6    0    0   -0.4904852867E+01   -0.8619317055E+01    0.9901021004E+01    0.1401358032E+02    0.3452669771E-03    0    0
  -24    2    6    6    0    0   -0.7094799042E+01   -0.1442929840E+02    0.1702686501E+02    0.2344972801E+02    0.1197825670E+01    0    0
  111    1   11   11    0    0   -0.1360983610E+01   -0.2336570024E+01    0.2641694069E+01    0.3782670736E+01    0.1349639744E+00    0    0
  111    1   11   11    0    0   -0.2494244337E+01   -0.4645432949E+01    0.5730480671E+01    0.7788319588E+01    0.1349637806E+00    0    0
 -321    1   11   11    0    0   -0.3239570856E+01   -0.7447294712E+01    0.8654688835E+01    0.1187873554E+02    0.4936668277E+00    0    0
  -16    1    9    9    0    0   -0.3049883805E-01    0.4952560902E+01   -0.7938755512E+01    0.9356956482E+01    0.2283726499E-03    0    0
   24    2    9    9    0    0   -0.2088995874E+00    0.1845597649E+02   -0.2706970024E+02    0.3279475784E+02    0.1435535669E+01    0    0
  321    1   16   16    0    0   -0.3574867249E+00    0.7619006634E+01   -0.1154498959E+02    0.1384584904E+02    0.4936670065E+00    0    0
  211    1   16   16    0    0    0.3016386330E+00    0.7050685406E+01   -0.1055760670E+02    0.1269983101E+02    0.1395679116E+00    0    0
 -211    1   16   16    0    0   -0.1530514807E+00    0.3786282778E+01   -0.4967101574E+01    0.6249074936E+01    0.1395680606E+00    0    0
</event>
<event>
   20 9999    1    0.9119999695E+02    0.7565275169E-02    0.1185000000E+00
   11   -1    0    0    0    0    0.0000000000E+00    0.0000000000E+00    0.8000000000E+02    0.8000000000E+02    0.5109988851E-03    0    0
  -11   -1    0    0    0    0    0.0000000000E+00    0.0000000000E+00   -0.8000000000E+02    0.8000000000E+02    0.5109988851E-03    0    0
  -24    2    1    2    0    0    0.1878962326E+02    0.3855910540E+01   -0.3287595272E+01    0.8327265167E+02    0.8096670532E+02    0    0
   24    2    1    2    0    0   -0.1878971291E+02   -0.3856074810E+01    0.3317318201E+01    0.7669573975E+02    0.7418428802E+02    0    0
   22    1    1    2    0    0    0.8973672811E-04    0.1637452660E-03   -0.3066760488E-01    0.3066817485E-01    0.0000000000E+00    0    0
   22    1    1    2    0    0    0.1488269845E-05    0.4346814535E-06    0.9448044002E-03    0.9448056808E-03    0.0000000000E+00    0    0
   15    2    3    3    0    0    0.3404642868E+02   -0.2755438042E+02   -0.1517070770E+02    0.4638654327E+02    0.1777029991E+01    0    0
  -16    1    3    3    0    0   -0.1525680637E+02    0.3141028976E+02    0.1188311195E+02    0.3688610458E+02    0.0000000000E+00    0    0
   16    1    4    4    0    0    0.4495181084E+01   -0.3620824051E+02    0.4600799084E+01    0.3677513885E+02    0.0000000000E+00    0    0
  -15    2    4    4    0    0   -0.2328489494E+02    0.3235216904E+02   -0.1283481121E+01    0.3992060089E+02    0.1777029991E+01    0    0
   16    1    7    7    0    0    0.1474916267E+02   -0.1187306595E+02   -0.6483684063E+01    0.2001363564E+02    0.2035776415E-03    0    0
  -24    2    7    7    0    0    0.1929860687E+02   -0.1568239880E+02   -0.8687621117E+01    0.2637473297E+02    0.1333385110E+01    0    0
  111    1   12   12    0    0    0.7264520526E+00   -0.5895200968E+00   -0.4337440729E+00    0.1040007591E+01    0.1349642575E+00    0    0
  111    1   12   12    0    0    0.3497777462E+01   -0.3038398266E+01   -0.1317146659E+01    0.4818651676E+01    0.1349637657E+00    0    0
 -321    1   12   12    0    0    0.1507437992E+02   -0.1205448246E+02   -0.6936730862E+01    0.2051607704E+02    0.4936670959E+00    0    0
  -16    1   10   10    0    0   -0.7866175771E+00    0.8918352723E+00    0.4505399615E-01    0.1190028310E+01    0.4577636719E-03    0    0
   24    2   10   10    0    0   -0.2249919319E+02    0.3146160507E+02   -0.1328585625E+01    0.3873214340E+02    0.1538615108E+01    0    0
  130    1   17   17    0    0   -0.6779438972E+01    0.8978369713E+01   -0.3956486583E+00    0.1126837063E+02    0.4977200627E+00    0    0
  211    1   17   17    0    0   -0.3591613054E+01    0.5046667576E+01   -0.4618740976E+00    0.6212997913E+01    0.1395681202E+00    0    0
  310    1   17   17    0    0   -0.1212814236E+02    0.1743656921E+02   -0.4710629284E+00    0.2125077438E+02    0.4977200329E+00    0    0
</event>
<event>
   16 9999    1    0.9119999695E+02    0.7565275169E-02    0.1185000000E+00
   11   -1    0    0    0    0    0.0000000000E+00    0.0000000000E+00    0.8000000000E+02    0.8000000000E+02    0.5109988851E-03    0    0
  -11   -1    0    0    0    0    0.0000000000E+00    0.0000000000E+00   -0.8000000000E+02    0.8000000000E+02    0.5109988851E-03    0    0
  -24    2    1    2    0    0   -0.3312646866E+01    0.4253980637E+01    0.1513091564E+02    0.8074150085E+02    0.7912758636E+02    0    0
   24    2    1    2    0    0    0.3312646866E+01   -0.4253980637E+01   -0.1513091564E+02    0.7925849915E+02    0.7761375427E+02    0    0
   15    2    3    3    0    0    0.4227972031E+01   -0.2536659622E+02    0.3560176849E+02    0.4395433807E+02    0.1777029991E+01    0    0
  -16    1    3    3    0    0   -0.7540618896E+01    0.2962057686E+02   -0.2047085381E+02    0.3678716278E+02    0.0000000000E+00    0    0
   16    1    4    4    0    0    0.2322224426E+02   -0.2226495361E+02    0.1777292633E+02    0.3675428772E+02    0.0000000000E+00    0    0
  -15    2    4    4    0    0   -0.1990959740E+02    0.1801097298E+02   -0.3290384293E+02    0.4250421143E+02    0.1777029991E+01    0    0
   16    1    5    5    0    0    0.3051171601E+00   -0.3940348148E+01    0.5977847576E+01    0.7166177273E+01    0.8631674427E-04    0    0
  -24    2    5    5    0    0    0.3923021317E+01   -0.2142724800E+02    0.2962532425E+02    0.3678989029E+02    0.1148577929E+01    0    0
 -321    1   10   10    0    0    0.1644651294E+01   -0.8987625122E+01    0.1289714909E+02    0.1581336308E+02    0.4936669767E+00    0    0
  130    1   10   10    0    0    0.2278370142E+01   -0.1243962288E+02    0.1672817612E+02    0.2097652817E+02    0.4977199733E+00    0    0
  -16    1    8    8    0    0   -0.1430402565E+02    0.1285688877E+02   -0.2399407768E+02    0.3075094414E+02    0.8631674427E-04    0    0
  323    2    8    8    0    0   -0.5606355667E+01    0.5154793739E+01   -0.8911059380E+01    0.1175494099E+02    0.8766518831E+00    0    0
  111    1   14   14    0    0   -0.3048371077E+01    0.2551042318E+01   -0.4853323936E+01    0.6274818897E+01    0.1349640340E+00    0    0
  321    1   14   14    0    0   -0.2557985306E+01    0.2603752136E+01   -0.4057737350E+01    0.5480123520E+01    0.4936670363E+00    0    0
</event>
<event>
   18 9999    1    0.9119999695E+02    0.7565275169E-02    0.1185000000E+00
   11   -1    0    0    0    0    0.0000000000E+00    0.0000000000E+00    0.8000000000E+02    0.8000000000E+02    0.5109988851E-03    0    0
  -11   -1    0    0    0    0    0.0000000000E+00    0.0000000000E+00   -0.8000000000E+02    0.8000000000E+02    0.5109988851E-03    0    0
  -24    2    1    2    0    0    0.2678362656E+02   -0.9322300911E+01    0.2654094934E+01    0.7620722961E+02    0.7068401337E+02    0    0
   24    2    1    2    0    0   -0.2678362656E+02    0.9322300911E+01   -0.2654094934E+01    0.8379277039E+02    0.7880301666E+02    0    0
   15    2    3    3    0    0   -0.1535531044E+02    0.1779677010E+02    0.9914556503E+01    0.2557277489E+02    0.1777029991E+01    0    0
  -16    1    3    3    0    0    0.4213893890E+02   -0.2711907005E+02   -0.7260461330E+01    0.5063445663E+02    0.0000000000E+00    0    0
   16    1    4    4    0    0   -0.1385521531E+01   -0.2594082260E+02    0.2178484535E+02    0.3390317535E+02    0.0000000000E+00    0    0
  -15    2    4    4    0    0   -0.2539810562E+02    0.3526312256E+02   -0.2443894005E+02    0.4988959122E+02    0.1777029991E+01    0    0
   16    1    5    5    0    0   -0.7315031052E+01    0.8193423271E+01    0.4262220860E+01    0.1178169727E+02    0.2114319796E-03    0    0
  -24    2    5    5    0    0   -0.8040884018E+01    0.9604046822E+01    0.5652725697E+01    0.1379208469E+02    0.1172500849E+01    0    0
  111    1   10   10    0    0   -0.2857609987E+01    0.3555744886E+01    0.1769067049E+01    0.4894596100E+01    0.1349641532E+00    0    0
  111    1   10   10    0    0   -0.3001521826E+01    0.3532408714E+01    0.2172239780E+01    0.5120926380E+01    0.1349638849E+00    0    0
 -321    1   10   10    0    0   -0.2181752205E+01    0.2515892744E+01    0.1711418748E+01    0.3776561975E+01    0.4936669767E+00    0    0
  -16    1    8    8    0    0   -0.1519154191E+01    0.2173757553E+01   -0.1308061838E+01    0.2957038641E+01    0.3908156941E-03    0    0
   24    2    8    8    0    0   -0.2387995148E+02    0.3309075546E+02   -0.2313183975E+02    0.4693451691E+02    0.1586409926E+01    0    0
  310    1   15   15    0    0   -0.8350345612E+01    0.1224956036E+02   -0.8134577751E+01    0.1691741943E+02    0.4977200329E+00    0    0
  211    1   15   15    0    0   -0.7648898125E+01    0.1044064236E+02   -0.7516088486E+01    0.1496742153E+02    0.1395690739E+00    0    0
  310    1   15   15    0    0   -0.7880706310E+01    0.1040055084E+02   -0.7481173992E+01    0.1504967403E+02    0.4977200329E+00    0    0
</event>
<event>
   18 9999    1    0.9119999695E+02    0.7565275169E-02    0.1185000000E+00
   11   -1    0    0    0    0    0.0000000000E+00    0.0000000000E+00    0.8000000000E+02    0.8000000000E+02    0.5109988851E-03    0    0
  -11   -1    0    0    0    0    0.0000000000E+00    0.0000000000E+00   -0.8000000000E+02    0.8000000000E+02    0.5109988851E-03    0    0
  -24    2    1    2    0    0   -0.9603675842E+01   -0.1471661925E+01    0.5365157604E+01    0.8078807068E+02    0.8002207184E+02    0    0
   24    2    1    2    0    0    0.9603675842E+01    0.1471661925E+01   -0.5365157604E+01    0.7921192932E+02    0.7843052673E+02    0    0
   15    2    3    3    0    0   -0.2683957672E+02   -0.3425022125E+02    0.3919177055E+01    0.4372594833E+02    0.1777029991E+01    0    0
  -16    1    3    3    0    0    0.1723590088E+02    0.3277856064E+02    0.1445980549E+01    0.3706212616E+02    0.0000000000E+00    0    0
   16    1    4    4    0    0   -0.1619288802E+01   -0.3377865601E+02   -0.2011371803E+02    0.3934693527E+02    0.0000000000E+00    0    0
  -15    2    4    4    0    0    0.1122296429E+02    0.3525031662E+02    0.1474856091E+02    0.3986499405E+02    0.1777029991E+01    0    0
   16    1    5    5    0    0   -0.1210250378E+01   -0.1252338529E+01    0.2095455974E+00    0.1754128575E+01    0.3866229090E-03    0    0
  -24    2    5    5    0    0   -0.2563038254E+02   -0.3299923325E+02    0.3709785700E+01    0.4197353745E+02    0.1466161370E+01    0    0
  111    1   10   10    0    0   -0.8039642572E+00   -0.9759400487E+00    0.2522156537E+00    0.1296397090E+01    0.1349634081E+00    0    0
  111    1   10   10    0    0   -0.1400168800E+02   -0.1828542709E+02    0.2162946224E+01    0.2313224411E+02    0.1349641681E+00    0    0
 -321    1   10   10    0    0   -0.1082473087E+02   -0.1373786449E+02    0.1294623971E+01    0.1754489899E+02    0.4936670363E+00    0    0
  -16    1    8    8    0    0    0.1890632033E+01    0.5391059399E+01    0.2574891567E+01    0.6266424656E+01    0.5250442773E-03    0    0
   24    2    8    8    0    0    0.9332774162E+01    0.2986064339E+02    0.1217424870E+02    0.3360013580E+02    0.1413533688E+01    0    0
  321    1   15   15    0    0    0.2813303232E+01    0.9314862251E+01    0.3895354509E+01    0.1049279881E+02    0.4936670065E+00    0    0
  211    1   15   15    0    0    0.2533677340E+01    0.9348978996E+01    0.3665923834E+01    0.1035767365E+02    0.1395685375E+00    0    0
 -211    1   15   15    0    0    0.3985793829E+01    0.1119680309E+02    0.4612971306E+01    0.1274966431E+02    0.1395682693E+00    0    0
</event>
<event>
   19 9999    1    0.9119999695E+02    0.7565275169E-02    0.1185000000E+00
   11   -1    0    0    0    0    0.0000000000E+00    0.0000000000E+00    0.8000000000E+02    0.8000000000E+02    0.5109988851E-03    0    0
  -11   -1    0    0    0    0    0.0000000000E+00    0.0000000000E+00   -0.8000000000E+02    0.8000000000E+02    0.5109988851E-03    0    0
  -24    2    1    2    0    0   -0.2343664646E+01    0.8689886093E+01    0.2559800911E+02    0.8573465729E+02    0.8132752991E+02    0    0
   24    2    1    2    0    0    0.2343663216E+01   -0.8689886093E+01   -0.2561310196E+02    0.7425024414E+02    0.6910905457E+02    0    0
   22    1    1    2    0    0    0.1378521233E-05    0.5833274486E-06    0.1509182155E-01    0.1509182155E-01    0.0000000000E+00    0    0
   15    2    3    3    0    0    0.3223429871E+02   -0.1841156769E+02    0.6069663525E+01    0.3765679932E+02    0.1777029991E+01    0    0
  -16    1    3    3    0    0   -0.3457796478E+02    0.2710145378E+02    0.1952834702E+02    0.4807786179E+02    0.0000000000E+00    0    0
   16    1    4    4    0    0    0.2633656693E+02   -0.5502673626E+01   -0.3834642029E+02    0.4684380722E+02    0.0000000000E+00    0    0
  -15    2    4    4    0    0   -0.2399290466E+02   -0.3187212944E+01    0.1273331833E+02    0.2740644073E+02    0.1777029991E+01    0    0
   16    1    6    6    0    0    0.9859057426E+01   -0.5746334076E+01    0.1584239721E+01    0.1152090168E+02    0.8631674427E-04    0    0
  -24    2    6    6    0    0    0.2237650871E+02   -0.1266595745E+02    0.4485661983E+01    0.2613737679E+02    0.1380833507E+01    0    0
 -321    1   11   11    0    0    0.1381461906E+02   -0.8327227592E+01    0.2742577791E+01    0.1636923409E+02    0.4936669469E+00    0    0
  130    1   11   11    0    0    0.8561892509E+01   -0.4338731766E+01    0.1743084908E+01    0.9768145561E+01    0.4977200031E+00    0    0
  -16    1    9    9    0    0   -0.1055928326E+02   -0.1832357883E+01    0.5573741436E+01    0.1207984257E+02    0.1612132764E-03    0    0
   24    2    9    9    0    0   -0.1343456650E+02   -0.1354980469E+01    0.7160078526E+01    0.1532767868E+02    0.1160800695E+01    0    0
  111    1   15   15    0    0   -0.2729169369E+01   -0.4517107904E+00    0.1314585567E+01    0.3065739632E+01    0.1349640638E+00    0    0
  111    1   15   15    0    0   -0.1720176458E+01   -0.1892638505E+00    0.1039185047E+01    0.2023103714E+01    0.1349636763E+00    0    0
  111    1   15   15    0    0   -0.2907366037E+01   -0.4945700169E+00    0.1411505342E+01    0.3272298813E+01    0.1349639148E+00    0    0
  211    1   15   15    0    0   -0.6077854633E+01   -0.2194358408E+00    0.3394802570E+01    0.6966536522E+01    0.1395679116E+00    0    0
</event>
<event>
   22 9999    1    0.9119999695E+02    0.7565275169E-02    0.1185000000E+00
   11   -1    0    0    0    0    0.0000000000E+00    0.0000000000E+00    0.8000000000E+02    0.8000000000E+02    0.5109988851E-03    0    0
  -11   -1    0    0    0    0    0.0000000000E+00    0.0000000000E+00   -0.8000000000E+02    0.8000000000E+02    0.5109988851E-03    0    0
  -24    2    1    2    0    0   -0.1082653141E+02   -0.1461832428E+02    0.5183091164E+01    0.8090563965E+02    0.7866352081E+02    0    0
   24    2    1    2    0    0    0.1082653141E+02    0.1461832428E+02   -0.5183091164E+01    0.7909436035E+02    0.7679936981E+02    0    0
   15    2    3    3    0    0    0.2405702782E+02   -0.2425720406E+02    0.2233582306E+02    0.4085583496E+02    0.1777029991E+01    0    0
  -16    1    3    3    0    0   -0.3488356018E+02    0.9638879776E+01   -0.1715273094E+02    0.4004980469E+02    0.0000000000E+00    0    0
   16    1    4    4    0    0    0.2306866646E+02   -0.2646063042E+02    0.3648463011E+01    0.3529362106E+02    0.0000000000E+00    0    0
  -15    2    4    4    0    0   -0.1224213505E+02    0.4107895660E+02   -0.8831554413E+01    0.4380073547E+02    0.1777029991E+01    0    0
   16    1    5    5    0    0    0.1574373543E+00   -0.7835518569E-01    0.8754678816E-01    0.1964446306E+00    0.3814697266E-04    0    0
  -24    2    5    5    0    0    0.2390053749E+02   -0.2417980385E+02    0.2224915504E+02    0.4066099930E+02    0.1547061205E+01    0    0
 -211    1   10   10    0    0    0.9269951820E+01   -0.9112453461E+01    0.8333130836E+01    0.1544115829E+02    0.1395679563E+00    0    0
 -211    1   10   10    0    0    0.2605566263E+01   -0.2609160900E+01    0.2366086960E+01    0.4383439541E+01    0.1395680010E+00    0    0
 -211    1   10   10    0    0    0.2872554779E+01   -0.2983264446E+01    0.2645728111E+01    0.4916380405E+01    0.1395680010E+00    0    0
  211    1   10   10    0    0    0.7557315826E+00   -0.6864416003E+00    0.8413252831E+00    0.1330278039E+01    0.1395679861E+00    0    0
  211    1   10   10    0    0    0.6256515503E+01   -0.6525780678E+01    0.5944653511E+01    0.1082072926E+02    0.1395679861E+00    0    0
  111    1   10   10    0    0    0.2140217781E+01   -0.2262702942E+01    0.2118230104E+01    0.3769014597E+01    0.1349639893E+00    0    0
  -16    1    8    8    0    0   -0.1870888352E+01    0.7025034428E+01   -0.1834358811E+01    0.7497746944E+01    0.3112194536E-03    0    0
   24    2    8    8    0    0   -0.1037172794E+02    0.3405553818E+02   -0.6997542858E+01    0.3630471420E+02    0.1309322834E+01    0    0
  211    1   18   18    0    0   -0.5358434916E+00    0.1374104261E+01   -0.1940831691E+00    0.1494134665E+01    0.1395682544E+00    0    0
  211    1   18   18    0    0   -0.6322130203E+01    0.2074297523E+02   -0.4576830864E+01    0.2216319466E+02    0.1395679563E+00    0    0
 -211    1   18   18    0    0   -0.1874790072E+01    0.6484496593E+01   -0.1099945545E+01    0.6840533257E+01    0.1395680606E+00    0    0
  111    1   18   18    0    0   -0.1638964295E+01    0.5453960419E+01   -0.1126682878E+01    0.5806850910E+01    0.1349639893E+00    0    0
</event>
<event>
   17 9999    1    0.9119999695E+02    0.7565275169E-02    0.1185000000E+00
   11   -1    0    0    0    0    0.0000000000E+00    0.0000000000E+00    0.8000000000E+02    0.8000000000E+02    0.5109988851E-03    0    0
  -11   -1    0    0    0    0    0.0000000000E+00    0.0000000000E+00   -0.8000000000E+02    0.8000000000E+02    0.5109988851E-03    0    0
  -24    2    1    2    0    0   -0.3468594790E+01   -0.7711752892E+01    0.1453056240E+02    0.7993894958E+02    0.7815110779E+02    0    0
   24    2    1    2    0    0    0.3468594790E+01    0.7711752892E+01   -0.1453056240E+02    0.8006105042E+02    0.7827600098E+02    0    0
   15    2    3    3    0    0   -0.6120174408E+01   -0.3555131531E+02    0.3090213394E+02    0.4753369522E+02    0.1777029991E+01    0    0
  -16    1    3    3    0    0    0.2651579380E+01    0.2783956146E+02   -0.1637157059E+02    0.3240525436E+02    0.0000000000E+00    0    0
   16    1    4    4    0    0    0.3924823380E+02   -0.5401336670E+01   -0.1364627934E+02    0.4190249634E+02    0.0000000000E+00    0    0
  -15    2    4    4    0    0   -0.3577963638E+02    0.1311308956E+02   -0.8842839599E+00    0.3815855789E+02    0.1777029991E+01    0    0
   16    1    5    5    0    0   -0.1224359155E+01   -0.1082688046E+02    0.8986028671E+01    0.1412335300E+02    0.8631674427E-04    0    0
 -323    2    5    5    0    0   -0.4896056175E+01   -0.2472583389E+02    0.2191732216E+02    0.3341221619E+02    0.8178080320E+00    0    0
  111    1   10   10    0    0   -0.7782877684E+00   -0.3096643448E+01    0.2818610907E+01    0.4261187077E+01    0.1349639744E+00    0    0
 -321    1   10   10    0    0   -0.4117767811E+01   -0.2162919044E+02    0.1909870911E+02    0.2915102577E+02    0.4936668873E+00    0    0
  -16    1    8    8    0    0   -0.5704195976E+01    0.2033228874E+01    0.4709339514E-01    0.6055913925E+01    0.6658149650E-03    0    0
   24    2    8    8    0    0   -0.3007684898E+02    0.1108037663E+02   -0.9314121008E+00    0.3210414124E+02    0.1554634094E+01    0    0
  130    1   14   14    0    0   -0.1755237961E+02    0.6724628448E+01   -0.9008805752E+00    0.1882461166E+02    0.4977199435E+00    0    0
  211    1   14   14    0    0   -0.2747243643E+01    0.9510154128E+00    0.1267041415E+00    0.2913298845E+01    0.1395671517E+00    0    0
  130    1   14   14    0    0   -0.9777229309E+01    0.3404734135E+01   -0.1572358906E+00    0.1036623669E+02    0.4977199435E+00    0    0
</event>
<event>
   20 9999    1    0.9119999695E+02    0.7565275169E-02    0.1185000000E+00
   11   -1    0    0    0    0    0.0000000000E+00    0.0000000000E+00    0.8000000000E+02    0.8000000000E+02    0.5109988851E-03    0    0
  -11   -1    0    0    0    0    0.0000000000E+00    0.0000000000E+00   -0.8000000000E+02    0.8000000000E+02    0.5109988851E-03    0    0
  -24    2    1    2    0    0   -0.1601304626E+02    0.8919986486E+00    0.2471786499E+01    0.8086518860E+02    0.7922029877E+02    0    0
   24    2    1    2    0    0    0.1598977757E+02   -0.8967145085E+00    0.1915366411E+01    0.7474759674E+02    0.7298669434E+02    0    0
   22    1    1    2    0    0    0.2326839790E-01    0.4715854302E-02   -0.4387152672E+01    0.4387217045E+01    0.0000000000E+00    0    0
   15    2    3    3    0    0   -0.6045015454E+00   -0.7347827911E+01    0.3841433334E+02    0.3915577316E+02    0.1777029991E+01    0    0
  -16    1    3    3    0    0   -0.1532298088E+02    0.8435286522E+01   -0.3684288406E+02    0.4078414154E+02    0.0000000000E+00    0    0
   22    1    3    3    0    0   -0.8556427062E-01   -0.1954596341E+00    0.9003366828E+00    0.9252738953E+00    0.0000000000E+00    0    0
   16    1    4    4    0    0   -0.2338841820E+02    0.8353151321E+01    0.1852579117E+02    0.3098383904E+02    0.0000000000E+00    0    0
  -15    2    4    4    0    0    0.3937819672E+02   -0.9249865532E+01   -0.1661042595E+02    0.4376375580E+02    0.1777029991E+01    0    0
   16    1    6    6    0    0   -0.1957869902E-01   -0.2055942059E+01    0.1188215637E+02    0.1205872726E+02    0.5733732251E-03    0    0
  -24    2    6    6    0    0   -0.5849478245E+00   -0.5292191505E+01    0.2653377724E+02    0.2709868050E+02    0.1395577908E+01    0    0
  221    1   12   12    0    0   -0.1064549536E+00   -0.1068719268E+01    0.5877818584E+01    0.6000285625E+01    0.5488000512E+00    0    0
 -211    1   12   12    0    0   -0.2681085765E+00   -0.1131730199E+01    0.6728494167E+01    0.6829700470E+01    0.1395681202E+00    0    0
  111    1   12   12    0    0   -0.2103842944E+00   -0.3091742277E+01    0.1392746544E+02    0.1426869488E+02    0.1349641234E+00    0    0
  -16    1   10   10    0    0   -0.1140008098E-02   -0.1372545026E-01   -0.8267894387E-02    0.1607001945E-01    0.4415748990E-03    0    0
   24    2   10   10    0    0    0.3938088608E+02   -0.9236504555E+01   -0.1660280991E+02    0.4374940872E+02    0.1479958773E+01    0    0
  111    1   17   17    0    0    0.1279150200E+02   -0.3196487904E+01   -0.5518338680E+01    0.1429371643E+02    0.1349639744E+00    0    0
  111    1   17   17    0    0    0.9898367882E+01   -0.2577511549E+01   -0.4494360924E+01    0.1117312622E+02    0.1349633187E+00    0    0
  321    1   17   17    0    0    0.1669102287E+02   -0.3462506533E+01   -0.6590113640E+01    0.1828257370E+02    0.4936671555E+00    0    0
</event>
<event>
   22 9999    1    0.9119999695E+02    0.7565275169E-02    0.1185000000E+00
   11   -1    0    0    0    0    0.0000000000E+00    0.0000000000E+00    0.8000000000E+02    0.8000000000E+02    0.5109988851E-03    0    0
  -11   -1    0    0    0    0    0.0000000000E+00    0.0000000000E+00   -0.8000000000E+02    0.8000000000E+02    0.5109988851E-03    0    0
  -24    2    1    2    0    0    0.1285641432E+01    0.2593590260E+01   -0.6529290676E+01    0.7517948151E+02    0.7483944702E+02    0    0
   24    2    1    2    0    0   -0.1285646081E+01   -0.2593614578E+01    0.6555656433E+01    0.8479415131E+02    0.8449078369E+02    0    0
   22    1    1    2    0    0   -0.3167349760E-07    0.3594602447E-06   -0.2583241835E-01    0.2583241835E-01    0.0000000000E+00    0    0
   22    1    1    2    0    0    0.4415056537E-05    0.2402449172E-04   -0.3392113722E-03    0.3400897258E-03    0.0000000000E+00    0    0
   22    1    1    2    0    0    0.2828972754E-06   -0.1885700414E-06   -0.1943044917E-03    0.1943047973E-03    0.0000000000E+00    0    0
   15    2    3    3    0    0    0.1388686848E+02   -0.2984603691E+02    0.1280758858E+02    0.3536697769E+02    0.1777029991E+01    0    0
  -16    1    3    3    0    0   -0.1260122681E+02    0.3243962479E+02   -0.1933687973E+02    0.3981250000E+02    0.0000000000E+00    0    0
   16    1    4    4    0    0   -0.4194102097E+02   -0.1529543281E+01    0.1217702389E+02    0.4369975662E+02    0.0000000000E+00    0    0
  -15    2    4    4    0    0    0.4065537643E+02   -0.1064071178E+01   -0.5621367455E+01    0.4109439850E+02    0.1777029991E+01    0    0
   16    1    8    8    0    0    0.3906255007E+01   -0.7125293255E+01    0.3007804632E+01    0.8664612770E+01    0.5543793086E-03    0    0
  -24    2    8    8    0    0    0.9981159210E+01   -0.2272191620E+02    0.9800288200E+01    0.2670375633E+02    0.1065787077E+01    0    0
  111    1   13   13    0    0    0.1562678695E+01   -0.3964967251E+01    0.1798445344E+01    0.4627693653E+01    0.1349643469E+00    0    0
  111    1   13   13    0    0    0.1295941830E+01   -0.3021856546E+01    0.1479369402E+01    0.3608023167E+01    0.1349643469E+00    0    0
  111    1   13   13    0    0    0.1042351723E+01   -0.2515739679E+01    0.1057896376E+01    0.2924517632E+01    0.1349640489E+00    0    0
 -211    1   13   13    0    0    0.6080187321E+01   -0.1321935272E+02    0.5464576244E+01    0.1554352093E+02    0.1395680159E+00    0    0
  -16    1   11   11    0    0    0.1318908310E+02   -0.4637998044E+00   -0.2111393929E+01    0.1336506748E+02    0.5250442773E-03    0    0
   24    2   11   11    0    0    0.2746789169E+02   -0.6003132463E+00   -0.3510194778E+01    0.2773094559E+02    0.1355898976E+01    0    0
  111    1   19   19    0    0    0.8819827080E+01   -0.4523954690E+00   -0.1325913310E+01    0.8931420326E+01    0.1349639744E+00    0    0
  111    1   19   19    0    0    0.1323575401E+02   -0.1569800079E+00   -0.1530367851E+01    0.1332554245E+02    0.1349640638E+00    0    0
  321    1   19   19    0    0    0.5412312984E+01    0.9062138386E-02   -0.6539138556E+00    0.5473986626E+01    0.4936670363E+00    0    0
</event>
<event>
   22 9999    1    0.9119999695E+02    0.7565275169E-02    0.1185000000E+00
   11   -1    0    0    0    0    0.0000000000E+00    0.0000000000E+00    0.8000000000E+02    0.8000000000E+02    0.5109988851E-03    0    0
  -11   -1    0    0    0    0    0.0000000000E+00    0.0000000000E+00   -0.8000000000E+02    0.8000000000E+02    0.5109988851E-03    0    0
  -24    2    1    2    0    0    0.2515884161E+01   -0.3813568354E+00    0.1567452717E+02    0.7771114349E+02    0.7607138824E+02    0    0
   24    2    1    2    0    0   -0.2864123106E+01    0.4414744079E+00   -0.1736976242E+02    0.8055718231E+02    0.7860885620E+02    0    0
   22    1    1    2    0    0    0.3482389152E+00   -0.6011758000E-01    0.1695234537E+01    0.1731676817E+01    0.0000000000E+00    0    0
   15    2    3    3    0    0    0.1450177574E+02   -0.3161406326E+02    0.2513019943E+02    0.4294688797E+02    0.1777029991E+01    0    0
  -16    1    3    3    0    0   -0.1198589134E+02    0.3123270607E+02   -0.9455672264E+01    0.3476425171E+02    0.0000000000E+00    0    0
   16    1    4    4    0    0   -0.1807771301E+02   -0.2860741806E+02   -0.3014496803E+02    0.4532005310E+02    0.0000000000E+00    0    0
  -15    2    4    4    0    0    0.1521359062E+02    0.2904889297E+02    0.1277520657E+02    0.3523712921E+02    0.1777029991E+01    0    0
   16    1    6    6    0    0    0.9394152164E+00   -0.2097120047E+01    0.1545150280E+01    0.2769097805E+01    0.3051757812E-04    0    0
  -24    2    6    6    0    0    0.1356293201E+02   -0.2951819038E+02    0.2358603859E+02    0.4017948151E+02    0.1677204967E+01    0    0
 -211    1   11   11    0    0    0.3315784454E+01   -0.6761964321E+01    0.5129648685E+01    0.9113252640E+01    0.1395679712E+00    0    0
 -211    1   11   11    0    0    0.1164424062E+01   -0.2095051050E+01    0.1726592779E+01    0.2957317114E+01    0.1395680606E+00    0    0
  211    1   11   11    0    0    0.2201101065E+01   -0.4649151325E+01    0.3749492168E+01    0.6366916656E+01    0.1395680010E+00    0    0
  111    1   11   11    0    0    0.9119647145E+00   -0.1897561669E+01    0.1735813856E+01    0.2731974602E+01    0.1349640191E+00    0    0
  111    1   11   11    0    0    0.2189159393E+01   -0.5257788181E+01    0.4222653866E+01    0.7091246605E+01    0.1349640489E+00    0    0
  111    1   11   11    0    0    0.3780498028E+01   -0.8856672287E+01    0.7021837711E+01    0.1191877651E+02    0.1349640489E+00    0    0
  -16    1    9    9    0    0    0.2982661687E-01    0.2105364390E-01   -0.2976542898E-01    0.4710537940E-01    0.2232168335E-03    0    0
20213    2    9    9    0    0    0.1518436337E+02    0.2902898216E+02    0.1280547428E+02    0.3519141006E+02    0.1099309683E+01    0    0
  111    1   19   19    0    0    0.1747593999E+01    0.3790030479E+01    0.1533672214E+01    0.4448458195E+01    0.1349641383E+00    0    0
  111    1   19   19    0    0    0.6821599960E+01    0.1345318127E+02    0.5787893295E+01    0.1615674019E+02    0.1349641532E+00    0    0
  211    1   19   19    0    0    0.6615170002E+01    0.1178577137E+02    0.5483909607E+01    0.1458621311E+02    0.1395681202E+00    0    0
</event>
<event>
   20 9999    1    0.9119999695E+02    0.7565275169E-02    0.1185000000E+00
   11   -1    0    0    0    0    0.0000000000E+00    0.0000000000E+00    0.8000000000E+02    0.8000000000E+02    0.5109988851E-03    0    0
  -11   -1    0    0    0    0    0.0000000000E+00    0.0000000000E+00   -0.8000000000E+02    0.8000000000E+02    0.5109988851E-03    0    0
  -24    2    1    2    0    0   -0.5283066750E+01    0.2968904972E+01    0.1060906410E+02    0.8246955109E+02    0.8155947876E+02    0    0
   24    2    1    2    0    0    0.5290973663E+01   -0.2948218107E+01   -0.1061280727E+02    0.7750798798E+02    0.7653868866E+02    0    0
   22    1    1    2    0    0   -0.7907195017E-02   -0.2068675496E-01    0.3742962377E-02    0.2246052772E-01    0.0000000000E+00    0    0
   15    2    3    3    0    0   -0.3249275208E+02    0.1292404842E+02    0.3122132111E+02    0.4691203308E+02    0.1777029991E+01    0    0
  -16    1    3    3    0    0    0.2720968628E+02   -0.9955143929E+01   -0.2061225510E+02    0.3555751801E+02    0.0000000000E+00    0    0
   16    1    4    4    0    0   -0.2192686653E+02   -0.2626820946E+02    0.1060008144E+02    0.3582133484E+02    0.0000000000E+00    0    0
  -15    2    4    4    0    0    0.2721784019E+02    0.2331999016E+02   -0.2121288872E+02    0.4168665695E+02    0.1777029991E+01    0    0
   16    1    6    6    0    0   -0.9604115486E+01    0.4100552082E+01    0.9556581497E+01    0.1415562820E+02    0.5424923147E-03    0    0
  -24    2    6    6    0    0   -0.2288991547E+02    0.8824005127E+01    0.2166596603E+02    0.3275824738E+02    0.1370193243E+01    0    0
  221    1   11   11    0    0   -0.1399849415E+02    0.5231586456E+01    0.1338564777E+02    0.2006998062E+02    0.5488000512E+00    0    0
 -211    1   11   11    0    0   -0.6524159431E+01    0.2703759909E+01    0.5743684292E+01    0.9104084969E+01    0.1395679116E+00    0    0
  111    1   11   11    0    0   -0.2367258310E+01    0.8886572123E+00    0.2536630869E+01    0.3584178448E+01    0.1349638700E+00    0    0
  -16    1    9    9    0    0    0.8320825577E+01    0.7149273872E+01   -0.5950959682E+01    0.1248047161E+02    0.3229676804E-03    0    0
   24    2    9    9    0    0    0.1889808655E+02    0.1617163467E+02   -0.1526276398E+02    0.2920782471E+02    0.1218870997E+01    0    0
  211    1   16   16    0    0    0.2463752747E+01    0.1933111668E+01   -0.2017366171E+01    0.3727766752E+01    0.1395682245E+00    0    0
  211    1   16   16    0    0    0.7393598080E+01    0.6257428646E+01   -0.5909010410E+01    0.1134709644E+02    0.1395680904E+00    0    0
 -211    1   16   16    0    0    0.7755509615E+00    0.5281541944E+00   -0.6251248717E+00    0.1136083841E+01    0.1395680457E+00    0    0
  111    1   16   16    0    0    0.8265184402E+01    0.7452939987E+01   -0.6711262703E+01    0.1299687862E+02    0.1349640042E+00    0    0
</event>
<event>
   19 9999    1    0.9119999695E+02    0.7565275169E-02    0.1185000000E+00
   11   -1    0    0    0    0    0.0000000000E+00    0.0000000000E+00    0.8000000000E+02    0.8000000000E+02    0.5109988851E-03    0    0
  -11   -1    0    0    0    0    0.0000000000E+00    0.0000000000E+00   -0.8000000000E+02    0.8000000000E+02    0.5109988851E-03    0    0
  -24    2    1    2    0    0    0.1023933506E+02    0.1429572392E+02   -0.7201327801E+01    0.8293309784E+02    0.8072687531E+02    0    0
   24    2    1    2    0    0   -0.1023933792E+02   -0.1429571724E+02    0.7617595196E+01    0.7659014130E+02    0.7415396118E+02    0    0
   22    1    1    2    0    0    0.7859762263E-05   -0.7093412023E-05   -0.4269541800E+00    0.4269541800E+00    0.0000000000E+00    0    0
   22    1    1    2    0    0    0.6745817132E-06   -0.4789686159E-06    0.3024738841E-01    0.3024738841E-01    0.0000000000E+00    0    0
   22    1    1    2    0    0   -0.5474003501E-05    0.9164595554E-06   -0.1956082135E-01    0.1956082135E-01    0.0000000000E+00    0    0
   15    2    3    3    0    0    0.6095961571E+01    0.4797941971E+02   -0.7613944054E+01    0.4899301529E+02    0.1777029991E+01    0    0
  -16    1    3    3    0    0    0.4143373489E+01   -0.3368369675E+02    0.4126165509E+00    0.3394008255E+02    0.0000000000E+00    0    0
   16    1    4    4    0    0    0.2773466682E+02   -0.1712689400E+02    0.1779021263E+02    0.3713534546E+02    0.0000000000E+00    0    0
  -15    2    4    4    0    0   -0.3797400665E+02    0.2831176281E+01   -0.1017261696E+02    0.3945479202E+02    0.1777029991E+01    0    0
   16    1    8    8    0    0    0.4795840979E+00    0.2365675211E+01   -0.4181579053E+00    0.2449750185E+01    0.3690608719E-03    0    0
  -24    2    8    8    0    0    0.5616617680E+01    0.4561563492E+02   -0.7196085930E+01    0.4654519653E+02    0.1529351592E+01    0    0
  130    1   13   13    0    0    0.3305770636E+01    0.2639764404E+02   -0.4167825699E+01    0.2693292046E+02    0.4977200031E+00    0    0
 -211    1   13   13    0    0    0.1439637423E+01    0.1265221024E+02   -0.1926619768E+01    0.1287953186E+02    0.1395679414E+00    0    0
  310    1   13   13    0    0    0.8712095022E+00    0.6565780640E+01   -0.1101640224E+01    0.6732742310E+01    0.4977200329E+00    0    0
  -16    1   11   11    0    0   -0.1304505706E+01    0.2911344357E-01   -0.7934036106E-01    0.1307240486E+01    0.2441406250E-03    0    0
  -11    1   11   11    0    0   -0.3277730942E+02    0.2736791849E+01   -0.8852023125E+01    0.3406171417E+02    0.4372115654E-03    0    0
   12    1   11   11    0    0   -0.3893685818E+01    0.6538251787E-01   -0.1241655111E+01    0.4087391853E+01    0.1057159898E-03    0    0
</event>
<event>
   21 9999    1    0.9119999695E+02    0.7565275169E-02    0.1185000000E+00
   11   -1    0    0    0    0    0.0000000000E+00    0.0000000000E+00    0.8000000000E+02    0.8000000000E+02    0.5109988851E-03    0    0
  -11   -1    0    0    0    0    0.0000000000E+00    0.0000000000E+00   -0.8000000000E+02    0.8000000000E+02    0.5109988851E-03    0    0
  -24    2    1    2    0    0   -0.4675920010E+01   -0.9154040337E+01   -0.5413370609E+01    0.8142436218E+02    0.8059132385E+02    0    0
   24    2    1    2    0    0    0.4675920010E+01    0.9154040337E+01    0.5430604935E+01    0.7855840302E+02    0.7769343567E+02    0    0
   22    1    1    2    0    0   -0.2318693788E-06   -0.6471976803E-06   -0.1723444276E-01    0.1723444276E-01    0.0000000000E+00    0    0
   15    2    3    3    0    0   -0.1830138445E+01    0.3344748306E+02    0.1155598164E+02    0.3547932053E+02    0.1777029991E+01    0    0
  -16    1    3    3    0    0   -0.2845781326E+01   -0.4260152435E+02   -0.1696935272E+02    0.4594504547E+02    0.0000000000E+00    0    0
   16    1    4    4    0    0    0.4433295429E+00    0.2595896912E+02    0.3539611816E+02    0.4389703751E+02    0.0000000000E+00    0    0
  -15    2    4    4    0    0    0.4232590675E+01   -0.1680492783E+02   -0.2996551323E+02    0.3466136551E+02    0.1777029991E+01    0    0
   16    1    6    6    0    0   -0.7449790835E-01    0.3064260960E+01    0.1333837390E+01    0.3342808247E+01    0.8631674427E-04    0    0
  -24    2    6    6    0    0   -0.1755712628E+01    0.3038453865E+02    0.1022259998E+02    0.3213790894E+02    0.1428577185E+01    0    0
 -211    1   11   11    0    0   -0.4112080634E+00    0.1089948940E+02    0.3750782490E+01    0.1153498268E+02    0.1395679861E+00    0    0
 -211    1   11   11    0    0   -0.6688165665E+00    0.5129293442E+01    0.1524989724E+01    0.5394630432E+01    0.1395678073E+00    0    0
 -211    1   11   11    0    0   -0.2301089019E+00    0.4196122169E+01    0.1451554656E+01    0.4448245049E+01    0.1395680010E+00    0    0
  211    1   11   11    0    0   -0.2609629035E+00    0.5440896511E+01    0.2006187201E+01    0.5806524277E+01    0.1395679712E+00    0    0
  211    1   11   11    0    0   -0.1846161783E+00    0.4718736649E+01    0.1489085317E+01    0.4953525543E+01    0.1395680010E+00    0    0
  -16    1    9    9    0    0    0.2275570154E+01   -0.9388892174E+01   -0.1691802406E+02    0.1948201942E+02    0.3258385696E-03    0    0
20213    2    9    9    0    0    0.1957187057E+01   -0.7416697502E+01   -0.1304866695E+02    0.1518070984E+02    0.1161141753E+01    0    0
  111    1   18   18    0    0    0.6174469590E+00   -0.1291568398E+01   -0.2146890879E+01    0.2583939791E+01    0.1349637955E+00    0    0
  111    1   18   18    0    0    0.2135665119E+00   -0.1533925414E+01   -0.2216383934E+01    0.2707233191E+01    0.1349642575E+00    0    0
  211    1   18   18    0    0    0.1126173615E+01   -0.4591203690E+01   -0.8685392380E+01    0.9889536858E+01    0.1395680606E+00    0    0
</event>
<event>
   14 9999    1    0.9119999695E+02    0.7565275169E-02    0.1185000000E+00
   11   -1    0    0    0    0    0.0000000000E+00    0.0000000000E+00    0.8000000000E+02    0.8000000000E+02    0.5109988851E-03    0    0
  -11   -1    0    0    0    0    0.0000000000E+00    0.0000000000E+00   -0.8000000000E+02    0.8000000000E+02    0.5109988851E-03    0    0
  -24    2    1    2    0    0    0.4069792271E+01    0.1237786579E+02    0.3751551867E+01    0.7969486237E+02    0.7853293610E+02    0    0
   24    2    1    2    0    0   -0.4069792271E+01   -0.1237786579E+02   -0.3751551867E+01    0.8030513763E+02    0.7915217590E+02    0    0
   15    2    3    3    0    0   -0.7426215649E+01    0.2174304008E+02    0.3682972336E+02    0.4344530869E+02    0.1777029991E+01    0    0
  -16    1    3    3    0    0    0.1149600792E+02   -0.9365174294E+01   -0.3307817078E+02    0.3624955368E+02    0.0000000000E+00    0    0
   16    1    4    4    0    0   -0.3644716644E+02   -0.2092475319E+02   -0.1546923542E+02    0.4478323746E+02    0.0000000000E+00    0    0
  -15    2    4    4    0    0    0.3237737274E+02    0.8546886444E+01    0.1171768284E+02    0.3552190399E+02    0.1777029991E+01    0    0
   16    1    5    5    0    0   -0.1919416308E+01    0.4039237499E+01    0.7685699463E+01    0.8892107964E+01    0.1220703125E-03    0    0
 -323    2    5    5    0    0   -0.5507091522E+01    0.1770465851E+02    0.2914547348E+02    0.3455490875E+02    0.8945749402E+00    0    0
  111    1   10   10    0    0   -0.1242472053E+01    0.4833882809E+01    0.8079509735E+01    0.9497729301E+01    0.1349641085E+00    0    0
 -321    1   10   10    0    0   -0.4264619350E+01    0.1287077522E+02    0.2106596184E+02    0.2505718040E+02    0.4936669767E+00    0    0
  -16    1    8    8    0    0    0.1977761459E+02    0.4370456696E+01    0.7353293419E+01    0.2154822159E+02    0.2283726499E-03    0    0
  211    1    8    8    0    0    0.1260103607E+02    0.4176766872E+01    0.4364851475E+01    0.1397508144E+02    0.1395677775E+00    0    0
</event>
<event>
   20 9999    1    0.9119999695E+02    0.7565275169E-02    0.1185000000E+00
   11   -1    0    0    0    0    0.0000000000E+00    0.0000000000E+00    0.8000000000E+02    0.8000000000E+02    0.5109988851E-03    0    0
  -11   -1    0    0    0    0    0.0000000000E+00    0.0000000000E+00   -0.8000000000E+02    0.8000000000E+02    0.5109988851E-03    0    0
  -24    2    1    2    0    0    0.1072557259E+02   -0.1155003166E+02   -0.1994667411E+01    0.7584561920E+02    0.7416291809E+02    0    0
   24    2    1    2    0    0   -0.1063148975E+02    0.1034623146E+02    0.3677889347E+01    0.8151500702E+02    0.8006932831E+02    0    0
   22    1    1    2    0    0   -0.1010219827E+00    0.1207666516E+01   -0.1991360188E+01    0.2331132650E+01    0.0000000000E+00    0    0
   22    1    1    2    0    0    0.6939330138E-02   -0.3865645500E-02    0.3081382811E+00    0.3082406521E+00    0.0000000000E+00    0    0
   15    2    3    3    0    0    0.2348899460E+02    0.2193803215E+02    0.1298898125E+02    0.3471139908E+02    0.1777029991E+01    0    0
  -16    1    3    3    0    0   -0.1366038418E+02   -0.3423205948E+02   -0.1533066940E+02    0.3991828537E+02    0.0000000000E+00    0    0
   22    1    3    3    0    0    0.8969619870E+00    0.7439943552E+00    0.3470207453E+00    0.1215932369E+01    0.0000000000E+00    0    0
   16    1    4    4    0    0    0.2565883827E+02    0.2119002151E+02    0.2149923515E+02    0.3961830521E+02    0.0000000000E+00    0    0
  -15    2    4    4    0    0   -0.3629032516E+02   -0.1084379101E+02   -0.1782134628E+02    0.4189670563E+02    0.1777029991E+01    0    0
   16    1    7    7    0    0    0.1560038948E+02    0.1439560604E+02    0.8139593124E+01    0.2273452187E+02    0.1220703125E-03    0    0
 -323    2    7    7    0    0    0.7889558315E+01    0.7543315411E+01    0.4849914551E+01    0.1197828579E+02    0.9005353451E+00    0    0
 -211    1   13   13    0    0    0.4308213234E+01    0.3863736868E+01    0.2382425308E+01    0.6259758472E+01    0.1395680159E+00    0    0
  130    1   13   13    0    0    0.3581345081E+01    0.3679578781E+01    0.2467489004E+01    0.5718526840E+01    0.4977200031E+00    0    0
  -16    1   11   11    0    0   -0.3496333957E+00   -0.2633067779E-01   -0.2595731914E+00    0.4362513125E+00    0.3700059606E-03    0    0
   24    2   11   11    0    0   -0.3594212341E+02   -0.1081788635E+02   -0.1756247330E+02    0.4146210098E+02    0.1342611074E+01    0    0
  211    1   17   17    0    0   -0.1322535515E+02   -0.3722726583E+01   -0.6845908165E+01    0.1535104752E+02    0.1395677477E+00    0    0
  130    1   17   17    0    0   -0.1415947056E+02   -0.4260109425E+01   -0.6644317627E+01    0.1621831703E+02    0.4977200925E+00    0    0
  111    1   17   17    0    0   -0.8557298660E+01   -0.2835051298E+01   -0.4072249889E+01    0.9892740250E+01    0.1349639893E+00    0    0
</event>
<event>
   22 9999    1    0.9119999695E+02    0.7565275169E-02    0.1185000000E+00
   11   -1    0    0    0    0    0.0000000000E+00    0.0000000000E+00    0.8000000000E+02    0.8000000000E+02    0.5109988851E-03    0    0
  -11   -1    0    0    0    0    0.0000000000E+00    0.0000000000E+00   -0.8000000000E+02    0.8000000000E+02    0.5109988851E-03    0    0
  -24    2    1    2    0    0    0.5927811146E+01    0.1010609055E+02    0.7525192261E+01    0.7855688477E+02    0.7731288910E+02    0    0
   24    2    1    2    0    0   -0.5928668499E+01   -0.1010559559E+02   -0.7752509594E+01    0.8120212555E+02    0.7997756958E+02    0    0
   22    1    1    2    0    0    0.8771455032E-03   -0.4130068992E-03    0.2341535687E+00    0.2341555655E+00    0.0000000000E+00    0    0
   22    1    1    2    0    0   -0.1973152212E-04   -0.8170035289E-04   -0.6836083252E-02    0.6836600136E-02    0.0000000000E+00    0    0
   15    2    3    3    0    0    0.3607669067E+02    0.2051490974E+02    0.1759136581E+02    0.4511101151E+02    0.1777029991E+01    0    0
  -16    1    3    3    0    0   -0.3014888191E+02   -0.1040881824E+02   -0.1006617451E+02    0.3344587326E+02    0.0000000000E+00    0    0
   16    1    4    4    0    0   -0.8860642433E+01    0.1952134895E+02    0.2760101128E+02    0.3494867325E+02    0.0000000000E+00    0    0
  -15    2    4    4    0    0    0.2931973696E+01   -0.2962694550E+02   -0.3535351944E+02    0.4625344849E+02    0.1777029991E+01    0    0
   16    1    7    7    0    0    0.7779960155E+01    0.4438765049E+01    0.4144026756E+01    0.9869314194E+01    0.6224389072E-03    0    0
  -24    2    7    7    0    0    0.2829815102E+02    0.1607695007E+02    0.1344803143E+02    0.3524346924E+02    0.1413821936E+01    0    0
 -321    1   12   12    0    0    0.1571327591E+02    0.9057806015E+01    0.7395802975E+01    0.1959317398E+02    0.4936670363E+00    0    0
  111    1   12   12    0    0    0.2521592617E+01    0.1258529186E+01    0.1019593716E+01    0.3000018597E+01    0.1349641383E+00    0    0
  130    1   12   12    0    0    0.1006328106E+02    0.5760613918E+01    0.5032634258E+01    0.1265027428E+02    0.4977200031E+00    0    0
  -16    1   10   10    0    0    0.1518579870E+00   -0.3068756342E+01   -0.3869859695E+01    0.4941268921E+01    0.0000000000E+00    0    0
   24    2   10   10    0    0    0.2780230999E+01   -0.2655935478E+02   -0.3148505211E+02    0.4131400299E+02    0.1552139997E+01    0    0
  211    1   17   17    0    0    0.7181300968E-01   -0.1428414345E+01   -0.1455266476E+01    0.2045190573E+01    0.1395679861E+00    0    0
  211    1   17   17    0    0    0.8200338483E+00   -0.5830300808E+01   -0.6552315235E+01    0.8810061455E+01    0.1395680159E+00    0    0
  211    1   17   17    0    0    0.1295658112E+01   -0.1155182266E+02   -0.1416171551E+02    0.1832203674E+02    0.1395680457E+00    0    0
 -211    1   17   17    0    0    0.4743573666E+00   -0.5354636669E+01   -0.6512458801E+01    0.8445634842E+01    0.1395680159E+00    0    0
 -211    1   17   17    0    0    0.1183686405E+00   -0.2394180059E+01   -0.2803296089E+01    0.3691077948E+01    0.1395679861E+00    0    0
</event>
<event>
   21 9999    1    0.9119999695E+02    0.7565275169E-02    0.1185000000E+00
   11   -1    0    0    0    0    0.0000000000E+00    0.0000000000E+00    0.8000000000E+02    0.8000000000E+02    0.5109988851E-03    0    0
  -11   -1    0    0    0    0    0.0000000000E+00    0.0000000000E+00   -0.8000000000E+02    0.8000000000E+02    0.5109988851E-03    0    0
  -24    2    1    2    0    0   -0.8435649872E+01   -0.1483742714E+02    0.5074992752E+02    0.6333029175E+02    0.3382101440E+02    0    0
   24    2    1    2    0    0    0.8436113358E+01    0.1483760548E+02   -0.5005492401E+02    0.9597470856E+02    0.8008948517E+02    0    0
   22    1    1    2    0    0   -0.5715874140E-03    0.2970553396E-04   -0.5751212835E+00    0.5751215816E+00    0.0000000000E+00    0    0
   22    1    1    2    0    0    0.1193359567E-03   -0.2262939233E-03   -0.1190252081E+00    0.1190254837E+00    0.0000000000E+00    0    0
   22    1    1    2    0    0   -0.1125944436E-04    0.1798394078E-04   -0.8572826628E-03    0.8575451793E-03    0.0000000000E+00    0    0
   15    2    3    3    0    0   -0.8072045326E+01    0.8397467613E+01    0.2979299736E+02    0.3203834915E+02    0.1777029991E+01    0    0
  -16    1    3    3    0    0   -0.3636048734E+00   -0.2323489380E+02    0.2095693016E+02    0.3129193878E+02    0.0000000000E+00    0    0
   16    1    4    4    0    0   -0.1818892288E+02   -0.1181913662E+02    0.1091355515E+02    0.2428239250E+02    0.0000000000E+00    0    0
  -15    2    4    4    0    0    0.2662503624E+02    0.2665674210E+02   -0.6096847916E+02    0.7169231415E+02    0.1777029991E+01    0    0
   16    1    8    8    0    0   -0.1309279680E+01    0.9916610122E+00    0.3581697702E+01    0.3940325260E+01    0.2895151556E-03    0    0
  -24    2    8    8    0    0   -0.6763083458E+01    0.7406136990E+01    0.2621247292E+02    0.2809928703E+02    0.1373325467E+01    0    0
 -211    1   13   13    0    0   -0.2457239479E+00    0.1349587440E+00    0.8495358229E+00    0.9054194689E+00    0.1395679414E+00    0    0
  310    1   13   13    0    0   -0.4544672012E+01    0.4593045712E+01    0.1672625351E+02    0.1793782043E+02    0.4977200031E+00    0    0
  111    1   13   13    0    0   -0.1972686768E+01    0.2678132296E+01    0.8636681557E+01    0.9256045341E+01    0.1349638402E+00    0    0
  -16    1   11   11    0    0    0.1068194103E+02    0.1098959732E+02   -0.2476906395E+02    0.2912699127E+02    0.5036989460E-03    0    0
   24    2   11   11    0    0    0.1594414139E+02    0.1566819286E+02   -0.3620181274E+02    0.4256813812E+02    0.1329436660E+01    0    0
  111    1   18   18    0    0    0.4807275772E+01    0.5045212269E+01   -0.1124865723E+02    0.1323308659E+02    0.1349636912E+00    0    0
  111    1   18   18    0    0    0.2732718229E+01    0.2398940086E+01   -0.6470261574E+01    0.7423285007E+01    0.1349642575E+00    0    0
  321    1   18   18    0    0    0.8404148102E+01    0.8224040985E+01   -0.1848289490E+02    0.2191176987E+02    0.4936669767E+00    0    0
</event>
<event>
   22 9999    1    0.9119999695E+02    0.7565275169E-02    0.1185000000E+00
   11   -1    0    0    0    0    0.0000000000E+00    0.0000000000E+00    0.8000000000E+02    0.8000000000E+02    0.5109988851E-03    0    0
  -11   -1    0    0    0    0    0.0000000000E+00    0.0000000000E+00   -0.8000000000E+02    0.8000000000E+02    0.5109988851E-03    0    0
  -24    2    1    2    0    0   -0.9834608078E+01   -0.1184364128E+02    0.4288444901E+02    0.9249167633E+02    0.8049001312E+02    0    0
   24    2    1    2    0    0    0.9825526237E+01    0.1184119225E+02   -0.4416619492E+02    0.6601407623E+02    0.4658810043E+02    0    0
   22    1    1    2    0    0    0.9112043306E-02    0.2750325715E-02    0.1029765487E+01    0.1029809475E+01    0.0000000000E+00    0    0
   22    1    1    2    0    0   -0.3557781019E-04   -0.3132877464E-03    0.1972993612E+00    0.1972996145E+00    0.0000000000E+00    0    0
   22    1    1    2    0    0    0.5171797966E-05    0.1058866474E-04    0.1609098166E+00    0.1609098166E+00    0.0000000000E+00    0    0
   22    1    1    2    0    0    0.3976122116E-06    0.1009431344E-05   -0.1062261537E+00    0.1062261537E+00    0.0000000000E+00    0    0
   15    2    3    3    0    0   -0.4022365570E+02   -0.2642306900E+02    0.2728900146E+02    0.5535312653E+02    0.1777029991E+01    0    0
  -16    1    3    3    0    0    0.3038904762E+02    0.1457942867E+02    0.1559544659E+02    0.3713854980E+02    0.0000000000E+00    0    0
   16    1    4    4    0    0   -0.1554598808E+02   -0.6473174095E+00   -0.2700319290E+01    0.1579203892E+02    0.0000000000E+00    0    0
  -15    2    4    4    0    0    0.2537151527E+02    0.1248851013E+02   -0.4146587753E+02    0.5022204208E+02    0.1777029991E+01    0    0
   16    1    9    9    0    0   -0.9460381508E+01   -0.6519382477E+01    0.6401724339E+01    0.1315230942E+02    0.4184359568E-03    0    0
  -24    2    9    9    0    0   -0.3076485634E+02   -0.1990472603E+02    0.2088834953E+02    0.4220299149E+02    0.1447397947E+01    0    0
 -321    1   14   14    0    0   -0.1375453377E+02   -0.8671041489E+01    0.9048165321E+01    0.1861416626E+02    0.4936669469E+00    0    0
 -211    1   14   14    0    0   -0.8039052010E+01   -0.5130368233E+01    0.5346914291E+01    0.1093416691E+02    0.1395678818E+00    0    0
  321    1   14   14    0    0   -0.8971266747E+01   -0.6103315353E+01    0.6493268967E+01    0.1265465641E+02    0.4936669767E+00    0    0
  -16    1   12   12    0    0    0.3531199455E+01    0.1642066836E+01   -0.6212144852E+01    0.7331882477E+01    0.3112194536E-03    0    0
   24    2   12   12    0    0    0.2184131432E+02    0.1084693432E+02   -0.3525536346E+02    0.4289213562E+02    0.1447626233E+01    0    0
  310    1   19   19    0    0    0.6048304558E+01    0.3188536644E+01   -0.9792119980E+01    0.1195333004E+02    0.4977199733E+00    0    0
  211    1   19   19    0    0    0.9808684349E+01    0.4761463165E+01   -0.1556247044E+02    0.1900241470E+02    0.1395680457E+00    0    0
  310    1   19   19    0    0    0.5984324455E+01    0.2896934986E+01   -0.9900773048E+01    0.1193638992E+02    0.4977199435E+00    0    0
</event>
<event>
   16 9999    1    0.9119999695E+02    0.7565275169E-02    0.1185000000E+00
   11   -1    0    0    0    0    0.0000000000E+00    0.0000000000E+00    0.8000000000E+02    0.8000000000E+02    0.5109988851E-03    0    0
  -11   -1    0    0    0    0    0.0000000000E+00    0.0000000000E+00   -0.8000000000E+02    0.8000000000E+02    0.5109988851E-03    0    0
  -24    2    1    2    0    0   -0.7019704342E+01    0.1517204285E+02    0.2276739502E+02    0.7440803528E+02    0.6883847046E+02    0    0
   24    2    1    2    0    0    0.7019704342E+01   -0.1517204285E+02   -0.2276739502E+02    0.8559196472E+02    0.8079704285E+02    0    0
   15    2    3    3    0    0   -0.2138108444E+02    0.1301868629E+02    0.4283029556E+02    0.4964099884E+02    0.1777029991E+01    0    0
  -16    1    3    3    0    0    0.1436137962E+02    0.2153356552E+01   -0.2006290054E+02    0.2476703835E+02    0.0000000000E+00    0    0
   16    1    4    4    0    0   -0.1534801483E+02    0.1760436249E+02    0.1738234901E+02    0.2911393547E+02    0.0000000000E+00    0    0
  -15    2    4    4    0    0    0.2236771965E+02   -0.3277640533E+02   -0.4014974594E+02    0.5647802734E+02    0.1777029991E+01    0    0
   16    1    5    5    0    0   -0.6063133240E+01    0.4169756413E+01    0.1304028034E+02    0.1497322178E+02    0.0000000000E+00    0    0
   11    1    5    5    0    0   -0.1052214146E+02    0.5561382294E+01    0.1931826019E+02    0.2269007683E+02    0.5459150416E-03    0    0
  -12    1    5    5    0    0   -0.4796652317E+01    0.3288060427E+01    0.1047344303E+02    0.1197965813E+02    0.0000000000E+00    0    0
  -16    1    8    8    0    0    0.4528183937E+01   -0.6796104908E+01   -0.7730413437E+01    0.1124503422E+02    0.1220703125E-03    0    0
   24    2    8    8    0    0    0.1784041595E+02   -0.2598159027E+02   -0.3242090988E+02    0.4523521423E+02    0.1336313844E+01    0    0
  321    1   13   13    0    0    0.1063086987E+02   -0.1605685234E+02   -0.2015829468E+02    0.2788258171E+02    0.4936669767E+00    0    0
  211    1   13   13    0    0    0.1710542202E+01   -0.2238388538E+01   -0.2608715296E+01    0.3842032194E+01    0.1395686120E+00    0    0
 -211    1   13   13    0    0    0.5499003410E+01   -0.7686349869E+01   -0.9653902054E+01    0.1351060009E+02    0.1395680010E+00    0    0
</event>
<event>
   14 9999    1    0.9119999695E+02    0.7565275169E-02    0.1185000000E+00
   11   -1    0    0    0    0    0.0000000000E+00    0.0000000000E+00    0.8000000000E+02    0.8000000000E+02    0.5109988851E-03    0    0
  -11   -1    0    0    0    0    0.0000000000E+00    0.0000000000E+00   -0.8000000000E+02    0.8000000000E+02    0.5109988851E-03    0    0
  -24    2    1    2    0    0    0.4062212944E+01    0.4472978115E+01    0.8118307114E+01    0.7966335297E+02    0.7901793671E+02    0    0
   24    2    1    2    0    0   -0.4062212944E+01   -0.4472978115E+01   -0.8118307114E+01    0.8033664703E+02    0.7969667816E+02    0    0
   15    2    3    3    0    0   -0.3159647751E+02    0.1403389931E+02    0.2108501434E+02    0.4053422546E+02    0.1777029991E+01    0    0
  -16    1    3    3    0    0    0.3565869141E+02   -0.9560920715E+01   -0.1296670723E+02    0.3912913132E+02    0.0000000000E+00    0    0
   16    1    4    4    0    0    0.1264648247E+02   -0.3260160446E+02   -0.2546948624E+02    0.4326075745E+02    0.0000000000E+00    0    0
  -15    2    4    4    0    0   -0.1670869637E+02    0.2812862778E+02    0.1735117912E+02    0.3707588959E+02    0.1777029991E+01    0    0
   16    1    5    5    0    0   -0.2521212006E+02    0.1194008064E+02    0.1683383560E+02    0.3258211899E+02    0.2712461574E-03    0    0
 -211    1    5    5    0    0   -0.6385602951E+01    0.2094371557E+01    0.4252009869E+01    0.7953702450E+01    0.1395682245E+00    0    0
  -16    1    8    8    0    0   -0.1605513573E+01    0.2082514524E+01    0.1484357953E+01    0.3019579172E+01    0.6103515625E-04    0    0
   24    2    8    8    0    0   -0.1510383892E+02    0.2604722023E+02    0.1586750221E+02    0.3405776596E+02    0.1253077269E+01    0    0
  321    1   12   12    0    0   -0.8302552223E+01    0.1364479828E+02    0.8214913368E+01    0.1796778870E+02    0.4936670065E+00    0    0
  310    1   12   12    0    0   -0.6801287174E+01    0.1240242195E+02    0.7652589798E+01    0.1608997917E+02    0.4977199733E+00    0    0
</event>
<event>
   19 9999    1    0.9119999695E+02    0.7565275169E-02    0.1185000000E+00
   11   -1    0    0    0    0    0.0000000000E+00    0.0000000000E+00    0.8000000000E+02    0.8000000000E+02    0.5109988851E-03    0    0
  -11   -1    0    0    0    0    0.0000000000E+00    0.0000000000E+00   -0.8000000000E+02    0.8000000000E+02    0.5109988851E-03    0    0
  -24    2    1    2    0    0   -0.9915783882E+01   -0.4668503761E+01    0.4970231628E+02    0.6343201828E+02    0.3785740662E+02    0    0
   24    2    1    2    0    0    0.9915783882E+01    0.4668503761E+01   -0.4970170212E+02    0.9656736755E+02    0.8206631470E+02    0    0
   22    1    1    2    0    0   -0.1109667291E-07    0.1938203731E-07   -0.6118813180E-03    0.6118813180E-03    0.0000000000E+00    0    0
   15    2    3    3    0    0   -0.2061661959E+01    0.1654472542E+02    0.2226359940E+02    0.2787120628E+02    0.1777029991E+01    0    0
  -16    1    3    3    0    0   -0.7854122162E+01   -0.2121323013E+02    0.2743871498E+02    0.3556081390E+02    0.0000000000E+00    0    0
   16    1    4    4    0    0    0.3441482544E+02    0.2276284790E+02   -0.3779188395E+01    0.4143440247E+02    0.0000000000E+00    0    0
  -15    2    4    4    0    0   -0.2449904251E+02   -0.1809434509E+02   -0.4592251587E+02    0.5513296509E+02    0.1777029991E+01    0    0
   16    1    6    6    0    0   -0.4956736416E-01    0.5275995135E+00    0.1145749211E+01    0.1262362599E+01    0.6103515625E-04    0    0
*****    2    6    6    0    0   -0.2012175798E+01    0.1601777840E+02    0.2111872673E+02    0.2660994148E+02    0.1212536454E+01    0    0
 -211    1   11   11    0    0   -0.4664009809E+00    0.5125799656E+01    0.6200592995E+01    0.8059663773E+01    0.1395679563E+00    0    0
 -211    1   11   11    0    0   -0.7102194428E+00    0.7007779121E+01    0.9801791191E+01    0.1207095528E+02    0.1395681351E+00    0    0
  211    1   11   11    0    0   -0.8355553150E+00    0.3884198189E+01    0.5116341591E+01    0.6479319572E+01    0.1395680755E+00    0    0
  -16    1    9    9    0    0   -0.4865332127E+01   -0.3751199722E+01   -0.8730637550E+01    0.1067553234E+02    0.3860202269E-03    0    0
   24    2    9    9    0    0   -0.1963467407E+02   -0.1434385681E+02   -0.3719368362E+02    0.4445959854E+02    0.1420992255E+01    0    0
  211    1   16   16    0    0   -0.4055747032E+01   -0.2738574743E+01   -0.7420603275E+01    0.8890089989E+01    0.1395679116E+00    0    0
  130    1   16   16    0    0   -0.9217911720E+01   -0.6286837578E+01   -0.1717374229E+02    0.2048607826E+02    0.4977200627E+00    0    0
  111    1   16   16    0    0   -0.6361015320E+01   -0.5318444729E+01   -0.1259933949E+02    0.1508343220E+02    0.1349638700E+00    0    0
</event>
<event>
   20 9999    1    0.9119999695E+02    0.7565275169E-02    0.1185000000E+00
   11   -1    0    0    0    0    0.0000000000E+00    0.0000000000E+00    0.8000000000E+02    0.8000000000E+02    0.5109988851E-03    0    0
  -11   -1    0    0    0    0    0.0000000000E+00    0.0000000000E+00   -0.8000000000E+02    0.8000000000E+02    0.5109988851E-03    0    0
  -24    2    1    2    0    0   -0.7808503151E+01   -0.1107690716E+02   -0.5530180931E+01    0.8122724152E+02    0.7989749908E+02    0    0
   24    2    1    2    0    0    0.7808586597E+01    0.1107633686E+02    0.5528509140E+01    0.7877098083E+02    0.7739924622E+02    0    0
   22    1    1    2    0    0   -0.1317173446E-03    0.5251624971E-03    0.1570132677E-02    0.1660861773E-02    0.0000000000E+00    0    0
   22    1    1    2    0    0    0.4828018791E-04    0.4529682701E-04    0.1014289010E-03    0.1211222552E-03    0.0000000000E+00    0    0
   15    2    3    3    0    0    0.3263540268E+02   -0.1235061741E+02    0.1225614929E+02    0.3702672577E+02    0.1777029991E+01    0    0
  -16    1    3    3    0    0   -0.4044390488E+02    0.1273710251E+01   -0.1778632927E+02    0.4420051575E+02    0.0000000000E+00    0    0
   16    1    4    4    0    0    0.3331941605E+02   -0.1818862343E+02    0.1100384331E+02    0.3952333450E+02    0.0000000000E+00    0    0
  -15    2    4    4    0    0   -0.2551082993E+02    0.2926496124E+02   -0.5475334167E+01    0.3924764252E+02    0.1777029991E+01    0    0
   16    1    7    7    0    0    0.3620572805E+01   -0.1200729489E+01    0.1197964549E+01    0.3998176813E+01    0.3558930475E-03    0    0
  -24    2    7    7    0    0    0.2901611519E+02   -0.1115037441E+02    0.1105866718E+02    0.3303000641E+02    0.1556067109E+01    0    0
 -321    1   12   12    0    0    0.9218805313E+01   -0.3868913412E+01    0.3454740286E+01    0.1058932400E+02    0.4936670661E+00    0    0
 -211    1   12   12    0    0    0.1297596359E+02   -0.4783348083E+01    0.4843791485E+01    0.1465393639E+02    0.1395677924E+00    0    0
  321    1   12   12    0    0    0.6821344376E+01   -0.2498111486E+01    0.2760134459E+01    0.7786741734E+01    0.4936670065E+00    0    0
  -16    1   10   10    0    0   -0.1210337877E+01    0.1182824969E+01   -0.3885897100E+00    0.1736374140E+01    0.5980199785E-03    0    0
20213    2   10   10    0    0   -0.2430149460E+02    0.2808328629E+02   -0.5086959839E+01    0.3751281357E+02    0.1449233532E+01    0    0
  111    1   17   17    0    0   -0.1521868134E+02    0.1742161560E+02   -0.2873399496E+01    0.2331084633E+02    0.1349636167E+00    0    0
  111    1   17   17    0    0   -0.5561218739E+01    0.6406061649E+01   -0.1697263598E+01    0.8652380943E+01    0.1349637955E+00    0    0
  211    1   17   17    0    0   -0.3521597624E+01    0.4255613327E+01   -0.5162970424E+00    0.5549588680E+01    0.1395680457E+00    0    0
</event>
<event>
   20 9999    1    0.9119999695E+02    0.7565275169E-02    0.1185000000E+00
   11   -1    0    0    0    0    0.0000000000E+00    0.0000000000E+00    0.8000000000E+02    0.8000000000E+02    0.5109988851E-03    0    0
  -11   -1    0    0    0    0    0.0000000000E+00    0.0000000000E+00   -0.8000000000E+02    0.8000000000E+02    0.5109988851E-03    0    0
  -24    2    1    2    0    0    0.1902083778E+02   -0.7623151779E+01    0.3297290802E+02    0.7054731750E+02    0.5890506363E+02    0    0
   24    2    1    2    0    0   -0.1902083778E+02    0.7623151779E+01   -0.3297306824E+02    0.8945252228E+02    0.8058924103E+02    0    0
   22    1    1    2    0    0   -0.7125121471E-07    0.8424334652E-07    0.1626933808E-03    0.1626934245E-03    0.0000000000E+00    0    0
   15    2    3    3    0    0    0.1957187843E+02   -0.3216426468E+02    0.2215657997E+02    0.4372264862E+02    0.1777029991E+01    0    0
  -16    1    3    3    0    0   -0.5510408282E+00    0.2454111290E+02    0.1081632614E+02    0.2682466698E+02    0.0000000000E+00    0    0
   16    1    4    4    0    0   -0.4693181229E+02    0.1736648560E+02   -0.7927311897E+01    0.5066588593E+02    0.0000000000E+00    0    0
  -15    2    4    4    0    0    0.2791097450E+02   -0.9743333817E+01   -0.2504575729E+02    0.3878663254E+02    0.1777029991E+01    0    0
   16    1    6    6    0    0    0.3387875319E+01   -0.4738873482E+01    0.3702857971E+01    0.6902592182E+01    0.2862802648E-03    0    0
*****    2    6    6    0    0    0.1618477249E+02   -0.2742665672E+02    0.1845459557E+02    0.3682178116E+02    0.1050245404E+01    0    0
  111    1   11   11    0    0    0.7535060883E+01   -0.1346250534E+02    0.9201497078E+01    0.1796390724E+02    0.1349642128E+00    0    0
  111    1   11   11    0    0    0.2615401983E+01   -0.4421796322E+01    0.2779699802E+01    0.5842735767E+01    0.1349642128E+00    0    0
 -211    1   11   11    0    0    0.6034310341E+01   -0.9542355537E+01    0.6473398209E+01    0.1301513767E+02    0.1395680308E+00    0    0
  -16    1    9    9    0    0    0.1814143944E+02   -0.6198682785E+01   -0.1598651123E+02    0.2496205139E+02    0.5179004511E-03    0    0
   24    2    9    9    0    0    0.9770633698E+01   -0.3545034885E+01   -0.9060232162E+01    0.1382610703E+02    0.1020236850E+01    0    0
  211    1   16   16    0    0    0.2111670494E+01   -0.9586526155E+00   -0.1919734120E+01    0.3013805866E+01    0.1395678818E+00    0    0
  211    1   16   16    0    0    0.3169934511E+01   -0.1059334755E+01   -0.2811197996E+01    0.4369552612E+01    0.1395682395E+00    0    0
 -211    1   16   16    0    0    0.4655719101E+00   -0.2564193606E+00   -0.5247153044E+00    0.7598114610E+00    0.1395680159E+00    0    0
  111    1   16   16    0    0    0.4023456573E+01   -0.1270628095E+01   -0.3804584265E+01    0.5682937145E+01    0.1349639744E+00    0    0
</event>
<event>
   20 9999    1    0.9119999695E+02    0.7565275169E-02    0.1185000000E+00
   11   -1    0    0    0    0    0.0000000000E+00    0.0000000000E+00    0.8000000000E+02    0.8000000000E+02    0.5109988851E-03    0    0
  -11   -1    0    0    0    0    0.0000000000E+00    0.0000000000E+00   -0.8000000000E+02    0.8000000000E+02    0.5109988851E-03    0    0
  -24    2    1    2    0    0    0.2911306190E+02   -0.1765755844E+02    0.2030860710E+02    0.7213755035E+02    0.6026629639E+02    0    0
   24    2    1    2    0    0   -0.2912161446E+02    0.1759676170E+02   -0.1945887947E+02    0.8701050568E+02    0.7768182373E+02    0    0
   22    1    1    2    0    0    0.8553029969E-02    0.6079750508E-01   -0.8495847583E+00    0.8518003225E+00    0.0000000000E+00    0    0
   22    1    1    2    0    0   -0.6433495514E-06   -0.8605307471E-06   -0.1439896878E-03    0.1439937041E-03    0.0000000000E+00    0    0
   15    2    3    3    0    0    0.4243285751E+02    0.3700686216E+01    0.1969062233E+02    0.4695871735E+02    0.1777029991E+01    0    0
  -16    1    3    3    0    0   -0.1331979752E+02   -0.2135824394E+02    0.6179846525E+00    0.2517883110E+02    0.0000000000E+00    0    0
   16    1    4    4    0    0    0.1247874641E+02   -0.2224254227E+02    0.1846812844E+01    0.2557069588E+02    0.0000000000E+00    0    0
  -15    2    4    4    0    0   -0.4160036087E+02    0.3983930588E+02   -0.2130569267E+02    0.6143981171E+02    0.1777029991E+01    0    0
   16    1    7    7    0    0    0.1027080059E+02    0.6565111279E+00    0.4922908783E+01    0.1140856552E+02    0.3762459673E-03    0    0
  -24    2    7    7    0    0    0.3216372681E+02    0.3044320583E+01    0.1476848888E+02    0.3555199814E+02    0.1436320901E+01    0    0
 -211    1   12   12    0    0    0.6698951721E+00    0.1499605831E-01    0.4091303647E+00    0.7974027395E+00    0.1395674050E+00    0    0
  111    1   12   12    0    0    0.3308370590E+01    0.5023944974E+00    0.1639499784E+01    0.3728791952E+01    0.1349640191E+00    0    0
   22    1   12   12    0    0    0.2818546677E+02    0.2526930571E+01    0.1271986103E+02    0.3102580833E+02    0.2589502255E-03    0    0
  -16    1   10   10    0    0   -0.5688935757E+01    0.5064346790E+01   -0.2536774635E+01    0.8027877808E+01    0.2729575208E-03    0    0
   24    2   10   10    0    0   -0.3591306305E+02    0.3477652740E+02   -0.1876975632E+02    0.5341435242E+02    0.1278492451E+01    0    0
  211    1   17   17    0    0   -0.1118589163E+01    0.9406344295E+00   -0.5487752557E+00    0.1567376256E+01    0.1395676732E+00    0    0
  111    1   17   17    0    0   -0.7432139874E+01    0.7161942482E+01   -0.3572438478E+01    0.1092294216E+02    0.1349640638E+00    0    0
   22    1   17   17    0    0   -0.2736233711E+02    0.2667395210E+02   -0.1464854431E+02    0.4092404175E+02    0.1726334885E-03    0    0
</event>
<event>
   21 9999    1    0.9119999695E+02    0.7565275169E-02    0.1185000000E+00
   11   -1    0    0    0    0    0.0000000000E+00    0.0000000000E+00    0.8000000000E+02    0.8000000000E+02    0.5109988851E-03    0    0
  -11   -1    0    0    0    0    0.0000000000E+00    0.0000000000E+00   -0.8000000000E+02    0.8000000000E+02    0.5109988851E-03    0    0
  -24    2    1    2    0    0   -0.9055936813E+01   -0.7500936985E+01    0.6033265591E+01    0.8357354736E+02    0.8252189636E+02    0    0
   24    2    1    2    0    0    0.9055936813E+01    0.7500937462E+01   -0.6031105995E+01    0.7642429352E+02    0.7527299500E+02    0    0
   22    1    1    2    0    0    0.1399756968E-06   -0.2744230301E-06   -0.2159458119E-02    0.2159458119E-02    0.0000000000E+00    0    0
   15    2    3    3    0    0   -0.3178920746E+02   -0.3341242599E+02   -0.7080443859E+01    0.4669298172E+02    0.1777029991E+01    0    0
  -16    1    3    3    0    0    0.2273327065E+02    0.2591148949E+02    0.1311370945E+02    0.3688056564E+02    0.0000000000E+00    0    0
   16    1    4    4    0    0    0.2007551384E+02   -0.2459011269E+02   -0.2225937080E+02    0.3877085876E+02    0.0000000000E+00    0    0
  -15    2    4    4    0    0   -0.1101957607E+02    0.3209104919E+02    0.1622826576E+02    0.3765343475E+02    0.1777029991E+01    0    0
   16    1    6    6    0    0   -0.1149822521E+02   -0.1140268230E+02   -0.2927569389E+01    0.1645603371E+02    0.1726334885E-03    0    0
 -323    2    6    6    0    0   -0.2029223442E+02   -0.2201105881E+02   -0.4153152943E+01    0.3023878479E+02    0.9349024892E+00    0    0
 -211    1   11   11    0    0   -0.8615314484E+01   -0.9373147964E+01   -0.1451926470E+01    0.1281433201E+02    0.1395677477E+00    0    0
  310    1   11   11    0    0   -0.1167691994E+02   -0.1263790989E+02   -0.2701226473E+01    0.1742445374E+02    0.4977200031E+00    0    0
  -16    1    9    9    0    0   -0.1376905560E+01    0.3511873960E+01    0.1613171816E+01    0.4102614880E+01    0.0000000000E+00    0    0
   24    2    9    9    0    0   -0.9643104553E+01    0.2858043861E+02    0.1461573219E+02    0.3355229950E+02    0.1518619180E+01    0    0
  211    1   15   15    0    0   -0.1457016468E+01    0.4320405006E+01    0.2209896088E+01    0.5068719387E+01    0.1395680010E+00    0    0
  211    1   15   15    0    0   -0.3404822946E+00    0.8177020550E+00    0.4155797362E+00    0.9883069396E+00    0.1395679861E+00    0    0
 -211    1   15   15    0    0   -0.1377373099E+01    0.4023578167E+01    0.2126066685E+01    0.4756677151E+01    0.1395680010E+00    0    0
  111    1   15   15    0    0   -0.2269920826E+01    0.6449208736E+01    0.3221158743E+01    0.7559028625E+01    0.1349640042E+00    0    0
  111    1   15   15    0    0   -0.2038497448E+01    0.5928887367E+01    0.2737267733E+01    0.6842370033E+01    0.1349639744E+00    0    0
  111    1   15   15    0    0   -0.2159814358E+01    0.7040658474E+01    0.3905763388E+01    0.8337198257E+01    0.1349640042E+00    0    0
</event>
<event>
   17 9999    1    0.9119999695E+02    0.7565275169E-02    0.1185000000E+00
   11   -1    0    0    0    0    0.0000000000E+00    0.0000000000E+00    0.8000000000E+02    0.8000000000E+02    0.5109988851E-03    0    0
  -11   -1    0    0    0    0    0.0000000000E+00    0.0000000000E+00   -0.8000000000E+02    0.8000000000E+02    0.5109988851E-03    0    0
  -24    2    1    2    0    0    0.1608189821E+01   -0.1030136108E+02   -0.1409889221E+01    0.7098710632E+02    0.7020310974E+02    0    0
   24    2    1    2    0    0   -0.1608189821E+01    0.1030136108E+02    0.1409889221E+01    0.8901289368E+02    0.8838893127E+02    0    0
   15    2    3    3    0    0    0.8157317162E+01    0.2902007484E+02    0.5011497974E+01    0.3061012077E+02    0.1777029991E+01    0    0
  -16    1    3    3    0    0   -0.6549127579E+01   -0.3932143784E+02   -0.6421387196E+01    0.4037697983E+02    0.0000000000E+00    0    0
   16    1    4    4    0    0    0.3590512085E+02   -0.1707908249E+02    0.1162890911E+02    0.4142588806E+02    0.0000000000E+00    0    0
  -15    2    4    4    0    0   -0.3751330948E+02    0.2738044357E+02   -0.1021901989E+02    0.4758700943E+02    0.1777029991E+01    0    0
   16    1    5    5    0    0    0.1640943408E+01    0.6216597557E+01    0.1443156362E+01    0.6589497566E+01    0.2729575208E-03    0    0
  -24    2    5    5    0    0    0.6516695499E+01    0.2280462074E+02    0.3568538904E+01    0.2402182961E+02    0.1340065598E+01    0    0
 -211    1   10   10    0    0    0.4104948044E+01    0.1355321503E+02    0.2132869959E+01    0.1432162189E+02    0.1395677626E+00    0    0
  111    1   10   10    0    0    0.1041652441E+01    0.4789207458E+01    0.1067567706E+01    0.5017914295E+01    0.1349643171E+00    0    0
   22    1   10   10    0    0    0.1370095015E+01    0.4462198734E+01    0.3681016266E+00    0.4682293892E+01    0.2729575208E-03    0    0
  -16    1    8    8    0    0   -0.8771761656E+00    0.7425758243E+00   -0.4388043880E+00    0.1230205774E+01    0.6103515625E-04    0    0
   24    2    8    8    0    0   -0.3663760757E+02    0.2663894272E+02   -0.9780617714E+01    0.4635867310E+02    0.1232223153E+01    0    0
  321    1   15   15    0    0   -0.1317830753E+02    0.9365499496E+01   -0.3767520428E+01    0.1660777855E+02    0.4936670065E+00    0    0
  130    1   15   15    0    0   -0.2345930290E+02    0.1727344513E+02   -0.6013097763E+01    0.2975089645E+02    0.4977199733E+00    0    0
</event>
<event>
   20 9999    1    0.9119999695E+02    0.7565275169E-02    0.1185000000E+00
   11   -1    0    0    0    0    0.0000000000E+00    0.0000000000E+00    0.8000000000E+02    0.8000000000E+02    0.5109988851E-03    0    0
  -11   -1    0    0    0    0    0.0000000000E+00    0.0000000000E+00   -0.8000000000E+02    0.8000000000E+02    0.5109988851E-03    0    0
  -24    2    1    2    0    0    0.5142176151E+01    0.9636540413E+01    0.5629317474E+02    0.9915997314E+02    0.8089791870E+02    0    0
   24    2    1    2    0    0   -0.5141673565E+01   -0.9635758400E+01   -0.5463272095E+02    0.5917957306E+02    0.1995502281E+02    0    0
   22    1    1    2    0    0   -0.5225970526E-03   -0.7809859817E-03   -0.1659261584E+01    0.1659261942E+01    0.0000000000E+00    0    0
   22    1    1    2    0    0    0.1955864354E-04   -0.1140766472E-05   -0.1190884621E-02    0.1191045740E-02    0.0000000000E+00    0    0
   15    2    3    3    0    0   -0.9094294548E+01   -0.1739995384E+02    0.1650813484E+02    0.2571266747E+02    0.1777029991E+01    0    0
  -16    1    3    3    0    0    0.2726457596E+02    0.2857840538E+02    0.9766770363E+01    0.4068748856E+02    0.0000000000E+00    0    0
   22    1    3    3    0    0   -0.1302810574E+02   -0.1541911721E+01    0.3001827049E+02    0.3275981522E+02    0.0000000000E+00    0    0
   16    1    4    4    0    0    0.6791322708E+01   -0.4061560154E+01   -0.1088291550E+02    0.1345571232E+02    0.0000000000E+00    0    0
  -15    2    4    4    0    0   -0.1193299580E+02   -0.5574198246E+01   -0.4374980545E+02    0.4572386169E+02    0.1777029991E+01    0    0
   16    1    7    7    0    0   -0.1887873530E+01   -0.4910111427E+01    0.4115515232E+01    0.6679128170E+01    0.3944301170E-05    0    0
 -323    2    7    7    0    0   -0.7206776619E+01   -0.1249050045E+02    0.1239326572E+02    0.1903452682E+02    0.8774514794E+00    0    0
 -211    1   13   13    0    0   -0.3439764261E+01   -0.5501278877E+01    0.5732138634E+01    0.8658692360E+01    0.1395681798E+00    0    0
  130    1   13   13    0    0   -0.3767018557E+01   -0.6989248753E+01    0.6661139011E+01    0.1037586498E+02    0.4977199733E+00    0    0
  -16    1   11   11    0    0   -0.2016537666E+01   -0.1068336964E+01   -0.6841623783E+01    0.7212182999E+01    0.1220703125E-03    0    0
   24    2   11   11    0    0   -0.9916928291E+01   -0.4506080627E+01   -0.3690990448E+02    0.3851348114E+02    0.1515482664E+01    0    0
  221    1   17   17    0    0   -0.5889051437E+01   -0.2951138973E+01   -0.2259965324E+02    0.2354645729E+02    0.5488000512E+00    0    0
  211    1   17   17    0    0   -0.1854451895E+01   -0.1087114573E+01   -0.6733112812E+01    0.7069306850E+01    0.1395679116E+00    0    0
  111    1   17   17    0    0   -0.2173424721E+01   -0.4678269625E+00   -0.7577140808E+01    0.7897715569E+01    0.1349640191E+00    0    0
</event>
<event>
   24 9999    1    0.9119999695E+02    0.7565275169E-02    0.1185000000E+00
   11   -1    0    0    0    0    0.0000000000E+00    0.0000000000E+00    0.8000000000E+02    0.8000000000E+02    0.5109988851E-03    0    0
  -11   -1    0    0    0    0    0.0000000000E+00    0.0000000000E+00   -0.8000000000E+02    0.8000000000E+02    0.5109988851E-03    0    0
  -24    2    1    2    0    0    0.5319166660E+01    0.9042771339E+01   -0.2629809618E+01    0.8138465881E+02    0.8066276550E+02    0    0
   24    2    1    2    0    0   -0.5319166660E+01   -0.9042771339E+01    0.2629809618E+01    0.7861534119E+02    0.7786777496E+02    0    0
   15    2    3    3    0    0    0.3731988668E+01    0.4315494156E+02    0.1082015705E+02    0.4468232727E+02    0.1777029991E+01    0    0
  -16    1    3    3    0    0    0.1587177873E+01   -0.3411217117E+02   -0.1344996738E+02    0.3670233154E+02    0.0000000000E+00    0    0
   16    1    4    4    0    0    0.2342371464E+01    0.3423759079E+02    0.4352016926E+01    0.3459247589E+02    0.0000000000E+00    0    0
  -15    2    4    4    0    0   -0.7661538124E+01   -0.4328036118E+02   -0.1722207189E+01    0.4402286530E+02    0.1777029991E+01    0    0
   16    1    5    5    0    0    0.2249106579E-01    0.2204510927E+01    0.5306479335E+00    0.2267589331E+01    0.7667446334E-04    0    0
  -24    2    5    5    0    0    0.3709644318E+01    0.4095212936E+02    0.1028993511E+02    0.4241649628E+02    0.1561428189E+01    0    0
 -211    1   10   10    0    0    0.2587535977E+00    0.2632270336E+01    0.4905244708E+00    0.2693676710E+01    0.1395680010E+00    0    0
 -211    1   10   10    0    0    0.5400188565E+00    0.7018639565E+01    0.1616427183E+01    0.7223935127E+01    0.1395680010E+00    0    0
  211    1   10   10    0    0    0.1713234663E+01    0.1716206169E+02    0.4507948875E+01    0.1782730103E+02    0.1395680308E+00    0    0
  111    1   10   10    0    0    0.1227852404E+00    0.1132335067E+01    0.3110185266E+00    0.1188363075E+01    0.1349640191E+00    0    0
  111    1   10   10    0    0    0.1838002801E+00    0.3457266808E+01    0.8747233748E+00    0.3573490381E+01    0.1349639893E+00    0    0
  111    1   10   10    0    0    0.8910517693E+00    0.9549556732E+01    0.2489293098E+01    0.9909732819E+01    0.1349640042E+00    0    0
  -16    1    8    8    0    0   -0.1246684551E+01   -0.6798398495E+01   -0.2882540524E+00    0.6917769432E+01    0.3814697266E-04    0    0
   24    2    8    8    0    0   -0.6415155411E+01   -0.3648366928E+02   -0.1434020996E+01    0.3710683060E+02    0.1627325773E+01    0    0
  211    1   18   18    0    0   -0.9063548446E+00   -0.4314702034E+01    0.1046037674E+00    0.4412318230E+01    0.1395681202E+00    0    0
  211    1   18   18    0    0   -0.1898780107E+01   -0.1157373810E+02   -0.8613080382E+00    0.1176087189E+02    0.1395679116E+00    0    0
  211    1   18   18    0    0   -0.8996390104E+00   -0.5758031845E+01   -0.2346847355E+00    0.5834280968E+01    0.1395679861E+00    0    0
 -211    1   18   18    0    0   -0.7480440140E+00   -0.4250672340E+01   -0.1221682355E+00    0.4319975853E+01    0.1395680159E+00    0    0
 -211    1   18   18    0    0   -0.7904465795E+00   -0.5087220669E+01   -0.1715894192E+00    0.5153012753E+01    0.1395680010E+00    0    0
  111    1   18   18    0    0   -0.1171890855E+01   -0.5499304295E+01   -0.1488744020E+00    0.5626371384E+01    0.1349640191E+00    0    0
</event>
<event>
   18 9999    1    0.9119999695E+02    0.7565275169E-02    0.1185000000E+00
   11   -1    0    0    0    0    0.0000000000E+00    0.0000000000E+00    0.8000000000E+02    0.8000000000E+02    0.5109988851E-03    0    0
  -11   -1    0    0    0    0    0.0000000000E+00    0.0000000000E+00   -0.8000000000E+02    0.8000000000E+02    0.5109988851E-03    0    0
  -24    2    1    2    0    0   -0.5060463905E+01    0.2639802933E+01    0.2178605348E+00    0.8008576202E+02    0.7988182068E+02    0    0
   24    2    1    2    0    0    0.5060463905E+01   -0.2639802933E+01   -0.2178605348E+00    0.7991423798E+02    0.7970985413E+02    0    0
   15    2    3    3    0    0   -0.3268817902E+02    0.1584552479E+02    0.2200120544E+02    0.4250657272E+02    0.1777029991E+01    0    0
  -16    1    3    3    0    0    0.2762771416E+02   -0.1320572186E+02   -0.2178334618E+02    0.3757919312E+02    0.0000000000E+00    0    0
   16    1    4    4    0    0   -0.2989538193E+01    0.3446978378E+02   -0.1677431488E+02    0.3845102310E+02    0.0000000000E+00    0    0
  -15    2    4    4    0    0    0.8050002098E+01   -0.3710958862E+02    0.1655645370E+02    0.4146321487E+02    0.1777029991E+01    0    0
   16    1    5    5    0    0   -0.1032177806E+01    0.6128999591E+00    0.5336220264E+00    0.1313693166E+01    0.1495049946E-03    0    0
  -24    2    5    5    0    0   -0.3165728760E+02    0.1523324871E+02    0.2146845055E+02    0.4119454956E+02    0.1364173412E+01    0    0
  221    1   10   10    0    0   -0.1022067451E+02    0.4597238064E+01    0.6880446911E+01    0.1316201115E+02    0.5487999916E+00    0    0
 -211    1   10   10    0    0   -0.9718687057E+01    0.4781188011E+01    0.6295411587E+01    0.1252854061E+02    0.1395678967E+00    0    0
  111    1   10   10    0    0   -0.1171792412E+02    0.5854822159E+01    0.8292591095E+01    0.1550399876E+02    0.1349640340E+00    0    0
  -16    1    8    8    0    0    0.2509826422E+00   -0.1219121099E+01    0.3583570421E+00    0.1295248389E+01    0.3787131864E-03    0    0
   24    2    8    8    0    0    0.7799336433E+01   -0.3589192963E+02    0.1619874763E+02    0.4016959763E+02    0.1461831212E+01    0    0
  111    1   15   15    0    0    0.3894392729E+01   -0.1584292698E+02    0.7169061661E+01    0.1782072639E+02    0.1349640340E+00    0    0
  111    1   15   15    0    0    0.1684303999E+01   -0.7297532558E+01    0.3343575716E+01    0.8202961922E+01    0.1349641085E+00    0    0
  321    1   15   15    0    0    0.2220640182E+01   -0.1275147247E+02    0.5686112881E+01    0.1414591408E+02    0.4936670661E+00    0    0
</event>
<event>
   17 9999    1    0.9119999695E+02    0.7565275169E-02    0.1185000000E+00
   11   -1    0    0    0    0    0.0000000000E+00    0.0000000000E+00    0.8000000000E+02    0.8000000000E+02    0.5109988851E-03    0    0
  -11   -1    0    0    0    0    0.0000000000E+00    0.0000000000E+00   -0.8000000000E+02    0.8000000000E+02    0.5109988851E-03    0    0
  -24    2    1    2    0    0    0.2979401207E+02   -0.5295164585E+01    0.1883233452E+02    0.7348683929E+02    0.6426458740E+02    0    0
   24    2    1    2    0    0   -0.2979537582E+02    0.5294470310E+01   -0.1885651207E+02    0.8648061371E+02    0.7878789520E+02    0    0
   22    1    1    2    0    0    0.1675579930E-02    0.6441404694E-03    0.2832806855E-01    0.2838489041E-01    0.0000000000E+00    0    0
   22    1    1    2    0    0   -0.3125907388E-03    0.5030876491E-04   -0.4150126129E-02    0.4162185825E-02    0.0000000000E+00    0    0
   15    2    3    3    0    0    0.3188562393E+02   -0.2514032936E+02   -0.6583557606E+01    0.4117317200E+02    0.1777029991E+01    0    0
  -16    1    3    3    0    0   -0.2091611624E+01    0.1984516525E+02    0.2541589165E+02    0.3231366348E+02    0.0000000000E+00    0    0
   16    1    4    4    0    0    0.1542217636E+02   -0.6625562668E+01    0.1967533684E+02    0.2586233711E+02    0.0000000000E+00    0    0
  -15    2    4    4    0    0   -0.4521755219E+02    0.1192003345E+02   -0.3853184891E+02    0.6061827469E+02    0.1777029991E+01    0    0
   16    1    7    7    0    0    0.4664495945E+01   -0.3778189421E+01   -0.6846303940E+00    0.6041602135E+01    0.4648299073E-03    0    0
  -24    2    7    7    0    0    0.2722238159E+02   -0.2136312866E+02   -0.5899186134E+01    0.3513319016E+02    0.1448916197E+01    0    0
 -321    1   12   12    0    0    0.1464792633E+02   -0.1185421467E+02   -0.3677952528E+01    0.1920560265E+02    0.4936667979E+00    0    0
 -211    1   12   12    0    0    0.5009401798E+01   -0.3689732075E+01   -0.7126832604E+00    0.6263834953E+01    0.1395676434E+00    0    0
  211    1   12   12    0    0    0.7565053463E+01   -0.5819180965E+01   -0.1508549929E+01    0.9663751602E+01    0.1395679712E+00    0    0
  -16    1   10   10    0    0   -0.4042269135E+02    0.1035524559E+02   -0.3494337082E+02    0.5442668533E+02    0.1726334885E-03    0    0
  211    1   10   10    0    0   -0.4796642780E+01    0.1565257668E+01   -0.3589996576E+01    0.6193978786E+01    0.1395680606E+00    0    0
</event>
<event>
   18 9999    1    0.9119999695E+02    0.7565275169E-02    0.1185000000E+00
   11   -1    0    0    0    0    0.0000000000E+00    0.0000000000E+00    0.8000000000E+02    0.8000000000E+02    0.5109988851E-03    0    0
  -11   -1    0    0    0    0    0.0000000000E+00    0.0000000000E+00   -0.8000000000E+02    0.8000000000E+02    0.5109988851E-03    0    0
  -24    2    1    2    0    0   -0.7476772308E+01    0.1102691078E+02   -0.9926725388E+01    0.8069532013E+02    0.7896645355E+02    0    0
   24    2    1    2    0    0    0.7476610661E+01   -0.1102454948E+02    0.9925686836E+01    0.7930202484E+02    0.7754257965E+02    0    0
   22    1    1    2    0    0    0.1612038905E-03   -0.2361367922E-02    0.9303193074E-03    0.2543135779E-02    0.0000000000E+00    0    0
   22    1    1    2    0    0    0.4339596060E-07    0.2856503256E-08    0.1079938011E-03    0.1079938083E-03    0.0000000000E+00    0    0
   15    2    3    3    0    0   -0.3042468262E+02   -0.7215517998E+01    0.2129108810E+02    0.3787074280E+02    0.1777029991E+01    0    0
  -16    1    3    3    0    0    0.2294791031E+02    0.1824242783E+02   -0.3121781158E+02    0.4282457733E+02    0.0000000000E+00    0    0
   16    1    4    4    0    0   -0.1030923367E+02    0.2956565857E+02   -0.6549868107E+01    0.3198920631E+02    0.0000000000E+00    0    0
  -15    2    4    4    0    0    0.1778584480E+02   -0.4059020615E+02    0.1647555542E+02    0.4731282043E+02    0.1777029991E+01    0    0
   16    1    7    7    0    0   -0.7445309162E+00   -0.2122904360E+00    0.3391634226E+00    0.8452370167E+00    0.5709315883E-03    0    0
  -24    2    7    7    0    0   -0.2968134689E+02   -0.7003510952E+01    0.2095276070E+02    0.3702699661E+02    0.1395938993E+01    0    0
 -211    1   12   12    0    0   -0.1580628204E+02   -0.3413432121E+01    0.1082061195E+02    0.1945752335E+02    0.1395686567E+00    0    0
  111    1   12   12    0    0   -0.5696237564E+01   -0.1223341584E+01    0.3772623301E+01    0.6942232609E+01    0.1349640042E+00    0    0
   22    1   12   12    0    0   -0.8178830147E+01   -0.2366738081E+01    0.6359527588E+01    0.1062724400E+02    0.3662109375E-03    0    0
  -16    1   10   10    0    0    0.1097561169E+02   -0.2555455780E+02    0.9840579033E+01    0.2950146675E+02    0.1220703125E-03    0    0
  -11    1   10   10    0    0    0.6801286221E+01   -0.1483850956E+02    0.6486450672E+01    0.1756453514E+02    0.5459150416E-03    0    0
   12    1   10   10    0    0    0.9647640400E-02   -0.1987399459E+00    0.1491745710E+00    0.2486840189E+00    0.2263244096E-03    0    0
</event>
<event>
   21 9999    1    0.9119999695E+02    0.7565275169E-02    0.1185000000E+00
   11   -1    0    0    0    0    0.0000000000E+00    0.0000000000E+00    0.8000000000E+02    0.8000000000E+02    0.5109988851E-03    0    0
  -11   -1    0    0    0    0    0.0000000000E+00    0.0000000000E+00   -0.8000000000E+02    0.8000000000E+02    0.5109988851E-03    0    0
  -24    2    1    2    0    0   -0.1436630249E+02   -0.6975197196E+00    0.1320229912E+02    0.7747831726E+02    0.7497807312E+02    0    0
   24    2    1    2    0    0    0.1436630249E+02    0.6975197196E+00   -0.1320229912E+02    0.8252168274E+02    0.8017886353E+02    0    0
   15    2    3    3    0    0    0.1731432533E+02   -0.2820490456E+02    0.1277536583E+02    0.3551999664E+02    0.1777029991E+01    0    0
  -16    1    3    3    0    0   -0.3168062782E+02    0.2750738525E+02    0.4269336164E+00    0.4195832062E+02    0.0000000000E+00    0    0
   16    1    4    4    0    0   -0.1181021214E+02   -0.3115081787E+02    0.1050638199E+02    0.3493191528E+02    0.0000000000E+00    0    0
  -15    2    4    4    0    0    0.2617651558E+02    0.3184833717E+02   -0.2370868111E+02    0.4758976746E+02    0.1777029991E+01    0    0
   16    1    5    5    0    0    0.6831517816E+00   -0.1256832480E+01    0.6693468094E+00    0.1579350948E+01    0.3051757812E-04    0    0
  -24    2    5    5    0    0    0.1663185501E+02   -0.2694918251E+02    0.1210652256E+02    0.3394204712E+02    0.1617894173E+01    0    0
 -211    1   10   10    0    0    0.1874984026E+01   -0.3407043695E+01    0.1586497068E+01    0.4202375889E+01    0.1395680010E+00    0    0
 -211    1   10   10    0    0    0.5714054108E+01   -0.9036961555E+01    0.3735121727E+01    0.1132641602E+02    0.1395680159E+00    0    0
  211    1   10   10    0    0    0.1107845306E+01   -0.2074699163E+01    0.9527317286E+00    0.2541431665E+01    0.1395680010E+00    0    0
  111    1   10   10    0    0    0.9374845624E+00   -0.1395317793E+01    0.6566630602E+00    0.1809754252E+01    0.1349640042E+00    0    0
  111    1   10   10    0    0    0.7862392664E+00   -0.1177788138E+01    0.6065143347E+00    0.1546425581E+01    0.1349640042E+00    0    0
  111    1   10   10    0    0    0.6211247921E+01   -0.9857372284E+01    0.4568994522E+01    0.1251564312E+02    0.1349640191E+00    0    0
  -16    1    8    8    0    0    0.5463528156E+01    0.6484736919E+01   -0.5322771549E+01    0.1001168537E+02    0.2990099892E-03    0    0
   24    2    8    8    0    0    0.2071401787E+02    0.2536485481E+02   -0.1838684273E+02    0.3757995605E+02    0.1315549254E+01    0    0
  321    1   18   18    0    0    0.1142518139E+02    0.1370158672E+02   -0.1015845871E+02    0.2053548813E+02    0.4936669767E+00    0    0
  111    1   18   18    0    0    0.2054732084E+01    0.2776473999E+01   -0.1862494946E+01    0.3926555157E+01    0.1349634975E+00    0    0
  130    1   18   18    0    0    0.7234104156E+01    0.8886793137E+01   -0.6365889549E+01    0.1311791229E+02    0.4977200031E+00    0    0
</event>
<event>
   21 9999    1    0.9119999695E+02    0.7565275169E-02    0.1185000000E+00
   11   -1    0    0    0    0    0.0000000000E+00    0.0000000000E+00    0.8000000000E+02    0.8000000000E+02    0.5109988851E-03    0    0
  -11   -1    0    0    0    0    0.0000000000E+00    0.0000000000E+00   -0.8000000000E+02    0.8000000000E+02    0.5109988851E-03    0    0
  -24    2    1    2    0    0   -0.7421588898E+01    0.4064767075E+02    0.2963279533E+02    0.9398722839E+02    0.7904544830E+02    0    0
   24    2    1    2    0    0    0.7421582222E+01   -0.4064766312E+02   -0.2880967903E+02    0.6518965912E+02    0.4138092804E+02    0    0
   22    1    1    2    0    0    0.7104261385E-05   -0.8491241715E-05   -0.8231163025E+00    0.8231163025E+00    0.0000000000E+00    0    0
   15    2    3    3    0    0   -0.1693004036E+02    0.6144514084E+02    0.1146813297E+02    0.6478276825E+02    0.1777029991E+01    0    0
  -16    1    3    3    0    0    0.9508450508E+01   -0.2079746819E+02    0.1816466331E+02    0.2920445633E+02    0.0000000000E+00    0    0
   16    1    4    4    0    0    0.1916759872E+02   -0.2701028824E+02   -0.3286019135E+02    0.4665559769E+02    0.0000000000E+00    0    0
  -15    2    4    4    0    0   -0.1174601746E+02   -0.1363737392E+02    0.4050510406E+01    0.1853405952E+02    0.1777029991E+01    0    0
   16    1    6    6    0    0   -0.1375473261E+01    0.5067918301E+01    0.9739722013E+00    0.5340818405E+01    0.1321449872E-04    0    0
  -24    2    6    6    0    0   -0.1555523205E+02    0.5637963867E+02    0.1049461174E+02    0.5944449997E+02    0.1697888136E+01    0    0
 -211    1   11   11    0    0   -0.4734955788E+01    0.1622735023E+02    0.3253854752E+01    0.1721492767E+02    0.1395679116E+00    0    0
 -211    1   11   11    0    0   -0.1596747518E+01    0.6822196484E+01    0.1164762497E+01    0.7104091644E+01    0.1395679116E+00    0    0
 -211    1   11   11    0    0   -0.1901803255E+01    0.6289551735E+01    0.1011074662E+01    0.6649591446E+01    0.1395679116E+00    0    0
  211    1   11   11    0    0   -0.3877697468E+01    0.1368206024E+02    0.2479927778E+01    0.1443623352E+02    0.1395679414E+00    0    0
  211    1   11   11    0    0   -0.1252589703E+01    0.4939800739E+01    0.8619098663E+00    0.5170394421E+01    0.1395679861E+00    0    0
  111    1   11   11    0    0   -0.2191438913E+01    0.8418680191E+01    0.1723082423E+01    0.8869261742E+01    0.1349639446E+00    0    0
  -16    1    9    9    0    0   -0.5520375252E+01   -0.7440762043E+01    0.1750265956E+01    0.9428833961E+01    0.1495049946E-03    0    0
  213    2    9    9    0    0   -0.6226104736E+01   -0.6197149277E+01    0.2300404072E+01    0.9105955124E+01    0.6764081120E+00    0    0
  211    1   19   19    0    0   -0.4103806019E+01   -0.3830713511E+01    0.1708854556E+01    0.5869859695E+01    0.1395681798E+00    0    0
  111    1   19   19    0    0   -0.2122298002E+01   -0.2366435051E+01    0.5915494561E+00    0.3236094952E+01    0.1349639595E+00    0    0
</event>
<event>
   21 9999    1    0.9119999695E+02    0.7565275169E-02    0.1185000000E+00
   11   -1    0    0    0    0    0.0000000000E+00    0.0000000000E+00    0.8000000000E+02    0.8000000000E+02    0.5109988851E-03    0    0
  -11   -1    0    0    0    0    0.0000000000E+00    0.0000000000E+00   -0.8000000000E+02    0.8000000000E+02    0.5109988851E-03    0    0
  -24    2    1    2    0    0    0.1046000767E+02   -0.4582084656E+01    0.3122018623E+02    0.7226813507E+02    0.6416834259E+02    0    0
   24    2    1    2    0    0   -0.1046000767E+02    0.4582084656E+01   -0.3122018623E+02    0.8773186493E+02    0.8118973541E+02    0    0
   15    2    3    3    0    0   -0.2671779060E+02    0.3736323118E+01    0.1166534424E+02    0.2944551849E+02    0.1777029991E+01    0    0
  -16    1    3    3    0    0    0.3717779922E+02   -0.8318408012E+01    0.1955484200E+02    0.4282261658E+02    0.0000000000E+00    0    0
   16    1    4    4    0    0    0.6594935417E+01   -0.2518323135E+02    0.1507650852E+02    0.3008304214E+02    0.0000000000E+00    0    0
  -15    2    4    4    0    0   -0.1705494308E+02    0.2976531601E+02   -0.4629669571E+02    0.5764882278E+02    0.1777029991E+01    0    0
   16    1    5    5    0    0   -0.7102277279E+01    0.9181248546E+00    0.3377047777E+01    0.7917685986E+01    0.1220703125E-03    0    0
  -24    2    5    5    0    0   -0.1961656380E+02    0.2818345308E+01    0.8288755417E+01    0.2152899170E+02    0.1428743720E+01    0    0
 -211    1   10   10    0    0   -0.1362836957E+01    0.2810565531E+00    0.4441714287E+00    0.1467339277E+01    0.1395680159E+00    0    0
 -211    1   10   10    0    0   -0.2156834126E+01    0.4736163318E+00    0.1001133323E+01    0.2428578377E+01    0.1395679861E+00    0    0
 -211    1   10   10    0    0   -0.5276474476E+01    0.7775964141E+00    0.2078089952E+01    0.5725711823E+01    0.1395680159E+00    0    0
  211    1   10   10    0    0   -0.2947160482E+01    0.4069238901E+00    0.1184547424E+01    0.3205304146E+01    0.1395680010E+00    0    0
  211    1   10   10    0    0   -0.3163028240E+01    0.3015753925E+00    0.1560079813E+01    0.3542460203E+01    0.1395679712E+00    0    0
  111    1   10   10    0    0   -0.4710230827E+01    0.5775766969E+00    0.2020733833E+01    0.5159597397E+01    0.1349640042E+00    0    0
  -16    1    8    8    0    0   -0.5950084686E+01    0.1056551170E+02   -0.1621331215E+02    0.2024611282E+02    0.1294751128E-03    0    0
   24    2    8    8    0    0   -0.1110552979E+02    0.1920097733E+02   -0.3008520508E+02    0.3740498352E+02    0.1415209293E+01    0    0
  211    1   18   18    0    0   -0.4459136724E+00    0.6828109026E+00   -0.1042845368E+01    0.1331193209E+01    0.1395678520E+00    0    0
  310    1   18   18    0    0   -0.3305499077E+01    0.5160851955E+01   -0.8271816254E+01    0.1030686092E+02    0.4977200925E+00    0    0
  111    1   18   18    0    0   -0.7354116917E+01    0.1335731411E+02   -0.2077054405E+02    0.2576692772E+02    0.1349641830E+00    0    0
</event>
<event>
   17 9999    1    0.9119999695E+02    0.7565275169E-02    0.1185000000E+00
   11   -1    0    0    0    0    0.0000000000E+00    0.0000000000E+00    0.8000000000E+02    0.8000000000E+02    0.5109988851E-03    0    0
  -11   -1    0    0    0    0    0.0000000000E+00    0.0000000000E+00   -0.8000000000E+02    0.8000000000E+02    0.5109988851E-03    0    0
  -24    2    1    2    0    0   -0.5509398937E+01    0.7355948091E+00    0.9149298072E+00    0.7711661530E+02    0.7691060638E+02    0    0
   24    2    1    2    0    0    0.5509399414E+01   -0.7355942130E+00   -0.8199407458E+00    0.8278822327E+02    0.8259735870E+02    0    0
   22    1    1    2    0    0   -0.5231499927E-06   -0.5545185218E-06   -0.9507402033E-01    0.9507402033E-01    0.0000000000E+00    0    0
   22    1    1    2    0    0    0.2262626544E-10   -0.1748656864E-07    0.8495037036E-04    0.8495037036E-04    0.0000000000E+00    0    0
   15    2    3    3    0    0   -0.3585325623E+02    0.1657453537E+02    0.1169149494E+02    0.4123130035E+02    0.1777029991E+01    0    0
  -16    1    3    3    0    0    0.3034385681E+02   -0.1583894157E+02   -0.1077656460E+02    0.3588531876E+02    0.0000000000E+00    0    0
   16    1    4    4    0    0    0.5822123051E+01   -0.2223423576E+02    0.3446771240E+02    0.4142802811E+02    0.0000000000E+00    0    0
  -15    2    4    4    0    0   -0.3127236664E+00    0.2149864197E+02   -0.3528765488E+02    0.4136019516E+02    0.1777029991E+01    0    0
   16    1    7    7    0    0   -0.6870529652E+01    0.3199668169E+01    0.1832418442E+01    0.7797423363E+01    0.1220703125E-03    0    0
   13    1    7    7    0    0   -0.2672742081E+02    0.1203698635E+02    0.8796033859E+01    0.3060433578E+02    0.1056591123E+00    0    0
  -14    1    7    7    0    0   -0.2256716013E+01    0.1338533521E+01    0.1063502312E+01    0.2831161499E+01    0.1220703125E-03    0    0
  -16    1   10   10    0    0   -0.4872781932E+00    0.3596374750E+01   -0.5171450615E+01    0.6317851543E+01    0.2114319796E-03    0    0
  213    2   10   10    0    0    0.1745422184E+00    0.1790311241E+02   -0.3011759377E+02    0.3504397202E+02    0.6772228479E+00    0    0
  211    1   15   15    0    0   -0.1916051209E+00    0.7950181007E+01   -0.1308294106E+02    0.1531094074E+02    0.1395679712E+00    0    0
  111    1   15   15    0    0    0.3661473691E+00    0.9952931404E+01   -0.1703465080E+02    0.1973303032E+02    0.1349641234E+00    0    0
</event>
<event>
   21 9999    1    0.9119999695E+02    0.7565275169E-02    0.1185000000E+00
   11   -1    0    0    0    0    0.0000000000E+00    0.0000000000E+00    0.8000000000E+02    0.8000000000E+02    0.5109988851E-03    0    0
  -11   -1    0    0    0    0    0.0000000000E+00    0.0000000000E+00   -0.8000000000E+02    0.8000000000E+02    0.5109988851E-03    0    0
  -24    2    1    2    0    0    0.5319462299E+01    0.2295381069E+01    0.2971159744E+02    0.7529976654E+02    0.6894715118E+02    0    0
   24    2    1    2    0    0   -0.5319463730E+01   -0.2295386314E+01   -0.2971333885E+02    0.8469849396E+02    0.7910364532E+02    0    0
   22    1    1    2    0    0    0.5761431154E-07   -0.3246179574E-06    0.1131770783E-02    0.1131770783E-02    0.0000000000E+00    0    0
   22    1    1    2    0    0    0.1435126592E-05    0.5360153864E-05    0.6081552710E-03    0.6081805914E-03    0.0000000000E+00    0    0
   15    2    3    3    0    0    0.3056246758E+02    0.1607201958E+02    0.8942379355E+00    0.3458802795E+02    0.1777029991E+01    0    0
  -16    1    3    3    0    0   -0.2524300575E+02   -0.1377663898E+02    0.2881735992E+02    0.4071173477E+02    0.0000000000E+00    0    0
   16    1    4    4    0    0   -0.1418152523E+02   -0.1164741611E+02    0.2355809212E+02    0.2986237907E+02    0.0000000000E+00    0    0
  -15    2    4    4    0    0    0.8862061501E+01    0.9352029800E+01   -0.5327143097E+02    0.5483611679E+02    0.1777029991E+01    0    0
   16    1    7    7    0    0    0.6325408459E+01    0.3456401825E+01   -0.4856756330E+00    0.7224498749E+01    0.0000000000E+00    0    0
   11    1    7    7    0    0    0.6771100998E+01    0.3762522221E+01    0.4923096597E+00    0.7761878490E+01    0.5106567405E-03    0    0
  -12    1    7    7    0    0    0.1746716118E+02    0.8853728294E+01    0.8876390457E+00    0.1960301399E+02    0.1220703125E-03    0    0
  -16    1   10   10    0    0    0.9521749616E+00    0.9687538743E+00   -0.6096592426E+01    0.6246083736E+01    0.0000000000E+00    0    0
   24    2   10   10    0    0    0.7910234928E+01    0.8383643150E+01   -0.4717693329E+02    0.4859218979E+02    0.1637258887E+01    0    0
  211    1   15   15    0    0    0.1590888023E+01    0.1423179388E+01   -0.9493580818E+01    0.9731594086E+01    0.1395679116E+00    0    0
  211    1   15   15    0    0    0.2445545197E+01    0.2304337740E+01   -0.1208363056E+02    0.1254289722E+02    0.1395680159E+00    0    0
 -211    1   15   15    0    0    0.8561795950E+00    0.9843992591E+00   -0.5093152523E+01    0.5259445667E+01    0.1395679861E+00    0    0
  111    1   15   15    0    0    0.1146134138E+01    0.1313115716E+01   -0.6713227272E+01    0.6937112331E+01    0.1349639893E+00    0    0
  111    1   15   15    0    0    0.6069712043E+00    0.7779263258E+00   -0.4638853550E+01    0.4744550705E+01    0.1349639893E+00    0    0
  111    1   15   15    0    0    0.1264516950E+01    0.1580685019E+01   -0.9154487610E+01    0.9376588821E+01    0.1349639893E+00    0    0
</event>
<event>
   16 9999    1    0.9119999695E+02    0.7565275169E-02    0.1185000000E+00
   11   -1    0    0    0    0    0.0000000000E+00    0.0000000000E+00    0.8000000000E+02    0.8000000000E+02    0.5109988851E-03    0    0
  -11   -1    0    0    0    0    0.0000000000E+00    0.0000000000E+00   -0.8000000000E+02    0.8000000000E+02    0.5109988851E-03    0    0
  -24    2    1    2    0    0    0.9531930923E+01    0.1169588852E+02   -0.2457219124E+02    0.7733869934E+02    0.7176232147E+02    0    0
   24    2    1    2    0    0   -0.9531930923E+01   -0.1169588852E+02    0.2457219124E+02    0.8266130066E+02    0.7746900177E+02    0    0
   15    2    3    3    0    0    0.1612757874E+02    0.9142782211E+01    0.2280108643E+02    0.2944038963E+02    0.1777029991E+01    0    0
  -16    1    3    3    0    0   -0.6595647335E+01    0.2553106070E+01   -0.4737327576E+02    0.4789831161E+02    0.0000000000E+00    0    0
   16    1    4    4    0    0    0.2250029945E+02   -0.3294433975E+02    0.7635795593E+01    0.4061894226E+02    0.0000000000E+00    0    0
  -15    2    4    4    0    0   -0.3203223038E+02    0.2124845123E+02    0.1693639565E+02    0.4204235840E+02    0.1777029991E+01    0    0
   16    1    5    5    0    0    0.1128527448E+00    0.1563447714E-01    0.4061161727E-01    0.1209536120E+00    0.5420629750E-03    0    0
  -24    2    5    5    0    0    0.1601535988E+02    0.9127507210E+01    0.2276136971E+02    0.2932059479E+02    0.1346898198E+01    0    0
 -321    1   10   10    0    0    0.6460629463E+01    0.3500946045E+01    0.8671556473E+01    0.1137699223E+02    0.4936670661E+00    0    0
 -211    1   10   10    0    0    0.9781319499E+00    0.4101938605E+00    0.1450593591E+01    0.1802415609E+01    0.1395680457E+00    0    0
  211    1   10   10    0    0    0.8576595306E+01    0.5216366291E+01    0.1263921642E+02    0.1614118195E+02    0.1395677179E+00    0    0
  -16    1    8    8    0    0   -0.5214989185E+01    0.3907846689E+01    0.2861797333E+01    0.7117391586E+01    0.1179475803E-03    0    0
  -11    1    8    8    0    0   -0.1661505890E+02    0.1065928745E+02    0.7989355564E+01    0.2129578209E+02    0.5725605297E-03    0    0
   12    1    8    8    0    0   -0.1020344257E+02    0.6682154655E+01    0.6085908890E+01    0.1363083744E+02    0.0000000000E+00    0    0
</event>
<event>
   19 9999    1    0.9119999695E+02    0.7565275169E-02    0.1185000000E+00
   11   -1    0    0    0    0    0.0000000000E+00    0.0000000000E+00    0.8000000000E+02    0.8000000000E+02    0.5109988851E-03    0    0
  -11   -1    0    0    0    0    0.0000000000E+00    0.0000000000E+00   -0.8000000000E+02    0.8000000000E+02    0.5109988851E-03    0    0
  -24    2    1    2    0    0    0.1305800200E+01   -0.1092109108E+02   -0.1784943390E+02    0.8251018524E+02    0.7980195618E+02    0    0
   24    2    1    2    0    0   -0.1305777669E+01    0.1092117691E+02    0.1784913254E+02    0.7748950195E+02    0.7459928894E+02    0    0
   22    1    1    2    0    0   -0.2252146078E-04   -0.8620775043E-04    0.2998901764E-03    0.3128467943E-03    0.0000000000E+00    0    0
   15    2    3    3    0    0   -0.1457930088E+02   -0.2582258987E+02    0.2208849335E+02    0.3701920700E+02    0.1777029991E+01    0    0
  -16    1    3    3    0    0    0.1588510132E+02    0.1490149879E+02   -0.3993792725E+02    0.4549097824E+02    0.0000000000E+00    0    0
   16    1    4    4    0    0   -0.1174033546E+02   -0.2263351250E+02   -0.1480757236E+02    0.2948517609E+02    0.0000000000E+00    0    0
  -15    2    4    4    0    0    0.1043455791E+02    0.3355469131E+02    0.3265670395E+02    0.4800432587E+02    0.1777029991E+01    0    0
   16    1    6    6    0    0   -0.4549884796E+01   -0.7855292797E+01    0.6235834599E+01    0.1101329708E+02    0.1220703125E-03    0    0
  -24    2    6    6    0    0   -0.1002999020E+02   -0.1796831322E+02    0.1585352898E+02    0.2600736618E+02    0.1260038257E+01    0    0
 -211    1   11   11    0    0   -0.3025468588E+01   -0.6061142921E+01    0.5466378689E+01    0.8705842018E+01    0.1395679563E+00    0    0
  111    1   11   11    0    0   -0.2014347792E+01   -0.2829571486E+01    0.2489858150E+01    0.4275708199E+01    0.1349641383E+00    0    0
   22    1   11   11    0    0   -0.4990173340E+01   -0.9077598572E+01    0.7897292137E+01    0.1302581501E+02    0.2069802867E-03    0    0
  -16    1    9    9    0    0    0.2863307238E+01    0.1052479839E+02    0.1001241207E+02    0.1480602264E+02    0.6895217230E-03    0    0
   24    2    9    9    0    0    0.7571660519E+01    0.2303120995E+02    0.2264557648E+02    0.3320019150E+02    0.1289912939E+01    0    0
  211    1   16   16    0    0    0.4458666325E+01    0.1362193871E+02    0.1313027954E+02    0.1943863678E+02    0.1395683587E+00    0    0
  111    1   16   16    0    0    0.3046400547E+01    0.8510696411E+01    0.8624092102E+01    0.1249422646E+02    0.1349642128E+00    0    0
   22    1   16   16    0    0    0.6659343094E-01    0.8985751271E+00    0.8912040591E+00    0.1267326593E+01    0.2813581668E-03    0    0
</event>
<event>
   23 9999    1    0.9119999695E+02    0.7565275169E-02    0.1185000000E+00
   11   -1    0    0    0    0    0.0000000000E+00    0.0000000000E+00    0.8000000000E+02    0.8000000000E+02    0.5109988851E-03    0    0
  -11   -1    0    0    0    0    0.0000000000E+00    0.0000000000E+00   -0.8000000000E+02    0.8000000000E+02    0.5109988851E-03    0    0
  -24    2    1    2    0    0   -0.1242937660E+02   -0.5256919265E+00    0.3296539187E+00    0.8019548798E+02    0.7922399139E+02    0    0
   24    2    1    2    0    0    0.1242937660E+02    0.5256916881E+00   -0.3294177651E+00    0.7980399323E+02    0.7882768250E+02    0    0
   22    1    1    2    0    0   -0.8957769637E-08    0.3673400784E-07   -0.3783880675E-03    0.3783880675E-03    0.0000000000E+00    0    0
   22    1    1    2    0    0    0.4598853920E-07    0.1525953763E-06    0.1422534551E-03    0.1422535424E-03    0.0000000000E+00    0    0
   15    2    3    3    0    0   -0.3493655777E+02   -0.2759211731E+02    0.4346073627E+01    0.4476532364E+02    0.1777029991E+01    0    0
  -16    1    3    3    0    0    0.2250718117E+02    0.2706642532E+02   -0.4016419888E+01    0.3543016052E+02    0.0000000000E+00    0    0
   16    1    4    4    0    0   -0.2165386009E+02    0.1375024509E+02    0.2458270073E+02    0.3552841187E+02    0.0000000000E+00    0    0
  -15    2    4    4    0    0    0.3408323669E+02   -0.1322455406E+02   -0.2491211891E+02    0.4427558136E+02    0.1777029991E+01    0    0
   16    1    7    7    0    0   -0.7475596905E+01   -0.5574947357E+01    0.1022740006E+01    0.9381395340E+01    0.4587798030E-03    0    0
  -24    2    7    7    0    0   -0.2746233559E+02   -0.2201825714E+02    0.3323504686E+01    0.3538568878E+02    0.1455291748E+01    0    0
 -211    1   12   12    0    0   -0.2569963932E+01   -0.2306566000E+01    0.2039683014E+00    0.3462086678E+01    0.1395680308E+00    0    0
  130    1   12   12    0    0   -0.1053472042E+02   -0.8794577599E+01    0.1202295661E+01    0.1378470802E+02    0.4977200329E+00    0    0
  111    1   12   12    0    0   -0.1435765076E+02   -0.1091711140E+02    0.1917240620E+01    0.1813889503E+02    0.1349639893E+00    0    0
  -16    1   10   10    0    0    0.9269423485E+01   -0.3692901850E+01   -0.6885721684E+01    0.1212323761E+02    0.2157918607E-04    0    0
   24    2   10   10    0    0    0.2481515503E+02   -0.9532172203E+01   -0.1802737617E+02    0.3215408707E+02    0.1498287320E+01    0    0
  211    1   17   17    0    0    0.6946669102E+01   -0.2772286177E+01   -0.5309596062E+01    0.9173498154E+01    0.1395679861E+00    0    0
  211    1   17   17    0    0    0.7003781319E+01   -0.2680637121E+01   -0.5054100037E+01    0.9044455528E+01    0.1395679861E+00    0    0
 -211    1   17   17    0    0    0.1480354548E+01   -0.4755260646E+00   -0.1172258019E+01    0.1952240467E+01    0.1395680308E+00    0    0
  111    1   17   17    0    0    0.5021240234E+01   -0.1765193701E+01   -0.3493019819E+01    0.6367743969E+01    0.1349640042E+00    0    0
  111    1   17   17    0    0    0.1143425226E+01   -0.4481797516E+00   -0.6859339476E+00    0.1413154960E+01    0.1349639744E+00    0    0
  111    1   17   17    0    0    0.3219683886E+01   -0.1390349865E+01   -0.2312469482E+01    0.4202995300E+01    0.1349640191E+00    0    0
</event>
<event>
   22 9999    1    0.9119999695E+02    0.7565275169E-02    0.1185000000E+00
   11   -1    0    0    0    0    0.0000000000E+00    0.0000000000E+00    0.8000000000E+02    0.8000000000E+02    0.5109988851E-03    0    0
  -11   -1    0    0    0    0    0.0000000000E+00    0.0000000000E+00   -0.8000000000E+02    0.8000000000E+02    0.5109988851E-03    0    0
  -24    2    1    2    0    0    0.4569269180E+01    0.1011479855E+01   -0.9696439743E+01    0.8524762726E+02    0.8456497955E+02    0    0
   24    2    1    2    0    0   -0.4569279671E+01   -0.1011478305E+01    0.9699504852E+01    0.7474931335E+02    0.7396943665E+02    0    0
   22    1    1    2    0    0    0.1013261408E-04   -0.1557097448E-05   -0.3064973513E-02    0.3064990742E-02    0.0000000000E+00    0    0
   15    2    3    3    0    0    0.1590488052E+02    0.1390829563E+02    0.3300193787E+02    0.3922615814E+02    0.1777029991E+01    0    0
  -16    1    3    3    0    0   -0.1133561134E+02   -0.1289681625E+02   -0.4269837570E+02    0.4602146530E+02    0.0000000000E+00    0    0
   16    1    4    4    0    0    0.1796109581E+02    0.2976728439E+02   -0.1966531873E+01    0.3482182312E+02    0.0000000000E+00    0    0
  -15    2    4    4    0    0   -0.2253037453E+02   -0.3077876091E+02    0.1166603661E+02    0.3992748642E+02    0.1777029991E+01    0    0
   16    1    6    6    0    0    0.3876337051E+01    0.3430347919E+01    0.8001970291E+01    0.9530204773E+01    0.3411969010E-04    0    0
  -24    2    6    6    0    0    0.1202917004E+02    0.1047849464E+02    0.2500126457E+02    0.2969749832E+02    0.1542194009E+01    0    0
 -211    1   11   11    0    0    0.1611898065E+01    0.9165350795E+00    0.2814468861E+01    0.3373272419E+01    0.1395679861E+00    0    0
 -211    1   11   11    0    0    0.1670673966E+01    0.1572860241E+01    0.3648975849E+01    0.4312718868E+01    0.1395679861E+00    0    0
  211    1   11   11    0    0    0.2489862680E+01    0.2381594419E+01    0.5505570412E+01    0.6496321678E+01    0.1395679712E+00    0    0
  111    1   11   11    0    0    0.2448473215E+01    0.2047059298E+01    0.4805854797E+01    0.5770608902E+01    0.1349639893E+00    0    0
  111    1   11   11    0    0    0.2481413603E+01    0.2409120560E+01    0.5402544975E+01    0.6416150093E+01    0.1349639893E+00    0    0
  111    1   11   11    0    0    0.1326848388E+01    0.1151325464E+01    0.2823849678E+01    0.3328425884E+01    0.1349639893E+00    0    0
  -16    1    9    9    0    0   -0.7539597750E+00   -0.7133976221E+00    0.2597003877E+00    0.1069970012E+01    0.1533489267E-03    0    0
   24    2    9    9    0    0   -0.2177730179E+02   -0.3006657600E+02    0.1140679550E+02    0.3885908890E+02    0.1289934278E+01    0    0
  321    1   19   19    0    0   -0.7432657719E+01   -0.1051607990E+02    0.3890618324E+01    0.1346153641E+02    0.4936669469E+00    0    0
  111    1   19   19    0    0   -0.4601613522E+01   -0.6443231583E+01    0.2593966961E+01    0.8332883835E+01    0.1349638999E+00    0    0
  310    1   19   19    0    0   -0.9743027687E+01   -0.1310725975E+02    0.4922208309E+01    0.1706466293E+02    0.4977200329E+00    0    0
</event>
<event>
   21 9999    1    0.9119999695E+02    0.7565275169E-02    0.1185000000E+00
   11   -1    0    0    0    0    0.0000000000E+00    0.0000000000E+00    0.8000000000E+02    0.8000000000E+02    0.5109988851E-03    0    0
  -11   -1    0    0    0    0    0.0000000000E+00    0.0000000000E+00   -0.8000000000E+02    0.8000000000E+02    0.5109988851E-03    0    0
  -24    2    1    2    0    0   -0.1546588421E+02   -0.1566595840E+02    0.3284185648E+01    0.6748706818E+02    0.6371109009E+02    0    0
   24    2    1    2    0    0    0.1570187283E+02    0.1553096390E+02    0.6345997810E+01    0.8287890625E+02    0.7962965393E+02    0    0
   22    1    1    2    0    0   -0.2359887511E+00    0.1349947304E+00   -0.9630183220E+01    0.9634020805E+01    0.0000000000E+00    0    0
   15    2    3    3    0    0   -0.1735579872E+02    0.8254611015E+01    0.2736856461E+02    0.3348967743E+02    0.1777029991E+01    0    0
  -16    1    3    3    0    0    0.1889914393E+01   -0.2392057037E+02   -0.2408437920E+02    0.3399739456E+02    0.0000000000E+00    0    0
   16    1    4    4    0    0   -0.2415065956E+02    0.6617404461E+01   -0.2184027290E+02    0.3322712708E+02    0.0000000000E+00    0    0
  -15    2    4    4    0    0    0.3985253143E+02    0.8913559914E+01    0.2818627167E+02    0.4965178299E+02    0.1777029991E+01    0    0
   16    1    6    6    0    0   -0.3126898527E+01    0.1695991516E+01    0.5331883430E+01    0.6409591675E+01    0.4825252836E-04    0    0
  -24    2    6    6    0    0   -0.1422958279E+02    0.6558944702E+01    0.2203775787E+02    0.2708140373E+02    0.1496288657E+01    0    0
 -211    1   11   11    0    0   -0.2045306206E+01    0.8624874353E+00    0.2861608028E+01    0.3624284983E+01    0.1395679861E+00    0    0
 -211    1   11   11    0    0   -0.3565016747E+01    0.1459745049E+01    0.6061881065E+01    0.7183737278E+01    0.1395679563E+00    0    0
 -211    1   11   11    0    0   -0.2116978407E+01    0.8290176392E+00    0.2781737566E+01    0.3595331907E+01    0.1395680159E+00    0    0
  211    1   11   11    0    0   -0.3059734106E+01    0.1590468049E+01    0.4880669594E+01    0.5977622986E+01    0.1395680159E+00    0    0
  211    1   11   11    0    0   -0.3442547083E+01    0.1817226529E+01    0.5451861382E+01    0.6700426579E+01    0.1395679861E+00    0    0
  -16    1    9    9    0    0    0.1051787949E+02    0.2457701206E+01    0.7803206444E+01    0.1332501793E+02    0.5250442773E-03    0    0
   24    2    9    9    0    0    0.2933621979E+02    0.6456209183E+01    0.2038417435E+02    0.3632871628E+02    0.1401701212E+01    0    0
  321    1   18   18    0    0    0.1477120399E+02    0.2847915649E+01    0.1029607964E+02    0.1823600960E+02    0.4936671257E+00    0    0
  211    1   18   18    0    0    0.2625420332E+01    0.8119478226E+00    0.1687436819E+01    0.3227849722E+01    0.1395682395E+00    0    0
 -211    1   18   18    0    0    0.1193959618E+02    0.2796345949E+01    0.8400657654E+01    0.1486485958E+02    0.1395680755E+00    0    0
</event>
<event>
   20 9999    1    0.9119999695E+02    0.7565275169E-02    0.1185000000E+00
   11   -1    0    0    0    0    0.0000000000E+00    0.0000000000E+00    0.8000000000E+02    0.8000000000E+02    0.5109988851E-03    0    0
  -11   -1    0    0    0    0    0.0000000000E+00    0.0000000000E+00   -0.8000000000E+02    0.8000000000E+02    0.5109988851E-03    0    0
  -24    2    1    2    0    0   -0.2118177176E+01   -0.1042569160E+02    0.6197619438E+01    0.8072016907E+02    0.7977564240E+02    0    0
   24    2    1    2    0    0    0.2120418310E+01    0.1042885399E+02   -0.6424816608E+01    0.7905259705E+02    0.7806906128E+02    0    0
   22    1    1    2    0    0   -0.2241213107E-02   -0.3162467852E-02    0.2271971107E+00    0.2272301763E+00    0.0000000000E+00    0    0
   15    2    3    3    0    0   -0.2050523758E+02   -0.3710234070E+02    0.1940575719E+01    0.4247319412E+02    0.1777029991E+01    0    0
  -16    1    3    3    0    0    0.2002420616E+02    0.2892339134E+02    0.4457325459E+01    0.3545982361E+02    0.0000000000E+00    0    0
   22    1    3    3    0    0   -0.1637146354E+01   -0.2246743202E+01   -0.2002817541E+00    0.2787152052E+01    0.0000000000E+00    0    0
   16    1    4    4    0    0   -0.1684597731E+01   -0.2497063065E+02    0.2210682106E+02    0.3339284134E+02    0.0000000000E+00    0    0
  -15    2    4    4    0    0    0.3805016041E+01    0.3539948273E+02   -0.2853163719E+02    0.4565975952E+02    0.1777029991E+01    0    0
   16    1    6    6    0    0   -0.6246213913E+01   -0.1150167942E+02    0.6170688868E+00    0.1310284710E+02    0.6347087910E-03    0    0
  -24    2    6    6    0    0   -0.1425979900E+02   -0.2560206413E+02    0.1323580265E+01    0.2937195396E+02    0.1467025280E+01    0    0
 -321    1   12   12    0    0   -0.4551521301E+01   -0.8151281357E+01    0.7062565088E+00    0.9375618935E+01    0.4936670661E+00    0    0
 -211    1   12   12    0    0   -0.3089357138E+01   -0.5224098206E+01    0.3696709275E+00    0.6082060814E+01    0.1395679116E+00    0    0
  321    1   12   12    0    0   -0.6618920803E+01   -0.1222668362E+02    0.2476525009E+00    0.1391427231E+02    0.4936669767E+00    0    0
  -16    1   10   10    0    0    0.1640519500E+00    0.5434023738E+00   -0.5182954669E+00    0.7686544657E+00    0.5954838707E-03    0    0
   24    2   10   10    0    0    0.3641113758E+01    0.3485747528E+02   -0.2801446342E+02    0.4489290237E+02    0.1503759623E+01    0    0
  111    1   17   17    0    0    0.6275752783E+00    0.8069322586E+01   -0.6213941097E+01    0.1020485592E+02    0.1349641383E+00    0    0
  111    1   17   17    0    0    0.2252612829E+01    0.2113974380E+02   -0.1728767204E+02    0.2740154648E+02    0.1349638253E+00    0    0
  321    1   17   17    0    0    0.7609257102E+00    0.5648408413E+01   -0.4512850761E+01    0.7286498070E+01    0.4936670065E+00    0    0
</event>
<event>
   16 9999    1    0.9119999695E+02    0.7565275169E-02    0.1185000000E+00
   11   -1    0    0    0    0    0.0000000000E+00    0.0000000000E+00    0.8000000000E+02    0.8000000000E+02    0.5109988851E-03    0    0
  -11   -1    0    0    0    0    0.0000000000E+00    0.0000000000E+00   -0.8000000000E+02    0.8000000000E+02    0.5109988851E-03    0    0
  -24    2    1    2    0    0   -0.6341171741E+01   -0.1373336887E+02    0.3256490326E+02    0.8173355865E+02    0.7342401123E+02    0    0
   24    2    1    2    0    0    0.6341172218E+01    0.1373336887E+02   -0.3257062149E+02    0.7826071930E+02    0.6953472900E+02    0    0
   22    1    1    2    0    0   -0.3371837067E-06    0.1021313381E-06    0.5719641224E-02    0.5719641224E-02    0.0000000000E+00    0    0
   15    2    3    3    0    0    0.3067259789E+01    0.2530978394E+02   -0.5784991741E+01    0.2620338058E+02    0.1777029991E+01    0    0
  -16    1    3    3    0    0   -0.9408431053E+01   -0.3904315186E+02    0.3834989548E+02    0.5553017807E+02    0.0000000000E+00    0    0
   16    1    4    4    0    0    0.3719670105E+02    0.3215121746E+01   -0.2441612244E+02    0.4461029816E+02    0.0000000000E+00    0    0
  -15    2    4    4    0    0   -0.3085552979E+02    0.1051824665E+02   -0.8154500961E+01    0.3365042114E+02    0.1777029991E+01    0    0
   16    1    6    6    0    0    0.2385793209E+01    0.1779357338E+02   -0.4857082367E+01    0.1859823990E+02    0.2441406250E-03    0    0
 -211    1    6    6    0    0    0.6815876365E+00    0.7517207146E+01   -0.9281371832E+00    0.7606173992E+01    0.1395679563E+00    0    0
  -16    1    9    9    0    0   -0.8398377299E+00    0.2835815847E+00   -0.8138120919E-01    0.8901509643E+00    0.1831054688E-03    0    0
   24    2    9    9    0    0   -0.3001690865E+02    0.1023507977E+02   -0.8073440552E+01    0.3276159668E+02    0.1539552927E+01    0    0
  321    1   13   13    0    0   -0.6099562168E+01    0.2091343164E+01   -0.1432183981E+01    0.6623687267E+01    0.4936669469E+00    0    0
  211    1   13   13    0    0   -0.1066857815E+02    0.3814749718E+01   -0.3154271841E+01    0.1176179314E+02    0.1395681202E+00    0    0
 -321    1   13   13    0    0   -0.1324876595E+02    0.4328986645E+01   -0.3486984253E+01    0.1437611485E+02    0.4936669469E+00    0    0
</event>
<event>
   20 9999    1    0.9119999695E+02    0.7565275169E-02    0.1185000000E+00
   11   -1    0    0    0    0    0.0000000000E+00    0.0000000000E+00    0.8000000000E+02    0.8000000000E+02    0.5109988851E-03    0    0
  -11   -1    0    0    0    0    0.0000000000E+00    0.0000000000E+00   -0.8000000000E+02    0.8000000000E+02    0.5109988851E-03    0    0
  -24    2    1    2    0    0    0.4387897491E+01   -0.3631006002E+01   -0.6101328850E+01    0.7930858612E+02    0.7886816406E+02    0    0
   24    2    1    2    0    0   -0.4383527279E+01    0.3638400555E+01    0.6103407860E+01    0.8068257904E+02    0.8024944305E+02    0    0
   22    1    1    2    0    0   -0.4369910806E-02   -0.7394570857E-02   -0.2079402562E-02    0.8837404661E-02    0.0000000000E+00    0    0
   15    2    3    3    0    0    0.4319192886E+01   -0.7972734451E+01    0.3590680313E+02    0.3707662582E+02    0.1777029991E+01    0    0
  -16    1    3    3    0    0    0.6870463490E-01    0.4341728210E+01   -0.4200813293E+02    0.4223196030E+02    0.0000000000E+00    0    0
   16    1    4    4    0    0   -0.2834096146E+02   -0.2455232811E+02   -0.1211574459E+02    0.3940581512E+02    0.0000000000E+00    0    0
  -15    2    4    4    0    0    0.2395743370E+02    0.2819072723E+02    0.1821915245E+02    0.4127676392E+02    0.1777029991E+01    0    0
   16    1    6    6    0    0   -0.1046886817E+00   -0.1866886914E+00    0.1661630750E+01    0.1675359488E+01    0.1495049946E-03    0    0
 -213    2    6    6    0    0    0.4424051285E+01   -0.7786359310E+01    0.3424658585E+02    0.3540272522E+02    0.5699264407E+00    0    0
 -211    1   11   11    0    0    0.1926220417E+01   -0.3761904240E+01    0.1548702049E+02    0.1605395699E+02    0.1395680606E+00    0    0
  111    1   11   11    0    0    0.2497830629E+01   -0.4024454594E+01    0.1875956345E+02    0.1934876823E+02    0.1349641383E+00    0    0
  -16    1    9    9    0    0    0.2391666651E+01    0.2950366259E+01    0.1626157641E+01    0.4131479263E+01    0.4184359568E-03    0    0
   24    2    9    9    0    0    0.2156670952E+02    0.2524147034E+02    0.1659371185E+02    0.3714690781E+02    0.1512168407E+01    0    0
  211    1   15   15    0    0    0.8583327293E+01    0.1003437233E+02    0.6470838547E+01    0.1470555496E+02    0.1395679861E+00    0    0
  211    1   15   15    0    0    0.6218809128E+01    0.7090765953E+01    0.4666684151E+01    0.1052378082E+02    0.1395680308E+00    0    0
 -211    1   15   15    0    0    0.1962040305E+01    0.2171631098E+01    0.1649373531E+01    0.3362364531E+01    0.1395679712E+00    0    0
  111    1   15   15    0    0    0.3922976494E+01    0.5019678116E+01    0.3042172194E+01    0.7061157227E+01    0.1349639595E+00    0    0
  111    1   15   15    0    0    0.8795557022E+00    0.9250214100E+00    0.7646420002E+00    0.1494046688E+01    0.1349637359E+00    0    0
</event>
<event>
   22 9999    1    0.9119999695E+02    0.7565275169E-02    0.1185000000E+00
   11   -1    0    0    0    0    0.0000000000E+00    0.0000000000E+00    0.8000000000E+02    0.8000000000E+02    0.5109988851E-03    0    0
  -11   -1    0    0    0    0    0.0000000000E+00    0.0000000000E+00   -0.8000000000E+02    0.8000000000E+02    0.5109988851E-03    0    0
  -24    2    1    2    0    0    0.1149389935E+02    0.4647065163E+01   -0.5185652733E+01    0.8073576355E+02    0.7960947418E+02    0    0
   24    2    1    2    0    0   -0.1149389935E+02   -0.4647065163E+01    0.5185314655E+01    0.7926389313E+02    0.7811640167E+02    0    0
   22    1    1    2    0    0    0.2168500046E-07   -0.8077361002E-07    0.3381098213E-03    0.3381098213E-03    0.0000000000E+00    0    0
   15    2    3    3    0    0   -0.2559695625E+02    0.1088873744E+00   -0.2717817688E+02    0.3737682724E+02    0.1777029991E+01    0    0
  -16    1    3    3    0    0    0.3709085464E+02    0.4538177967E+01    0.2199252510E+02    0.4335894012E+02    0.0000000000E+00    0    0
   16    1    4    4    0    0   -0.8389830589E+00    0.2541278839E+02    0.2962818146E+02    0.3904283524E+02    0.0000000000E+00    0    0
  -15    2    4    4    0    0   -0.1065491676E+02   -0.3005985451E+02   -0.2444286728E+02    0.4022106171E+02    0.1777029991E+01    0    0
   16    1    6    6    0    0   -0.4746740341E+01    0.2080122940E-01   -0.4856956959E+01    0.6791318417E+01    0.3955530119E-03    0    0
  -24    2    6    6    0    0   -0.2085122299E+02    0.8809043467E-01   -0.2232229042E+02    0.3058697891E+02    0.1580315709E+01    0    0
 -211    1   11   11    0    0   -0.7914848328E+01    0.1534244865E+00   -0.8787796021E+01    0.1182849121E+02    0.1395684928E+00    0    0
 -211    1   11   11    0    0   -0.1022333980E+01   -0.6619932503E-01   -0.1340153337E+01    0.1692642689E+01    0.1395680159E+00    0    0
  211    1   11   11    0    0   -0.7196639776E+00    0.3705812991E-01   -0.8795567751E+00    0.1145595431E+01    0.1395680159E+00    0    0
  111    1   11   11    0    0   -0.5061421394E+01    0.7493348420E-01   -0.5177154541E+01    0.7241874695E+01    0.1349640638E+00    0    0
  111    1   11   11    0    0   -0.6132953644E+01   -0.1111263707E+00   -0.6137627602E+01    0.8678373337E+01    0.1349639297E+00    0    0
  -16    1    9    9    0    0   -0.7825643420E+00   -0.2554255724E+01   -0.1726350188E+01    0.3180709839E+01    0.2114319796E-03    0    0
   24    2    9    9    0    0   -0.9872771263E+01   -0.2750678062E+02   -0.2271747971E+02    0.3704193115E+02    0.1387920737E+01    0    0
  111    1   18   18    0    0   -0.1000767708E+01   -0.2400736570E+01   -0.1781532049E+01    0.3155494213E+01    0.1349637061E+00    0    0
  111    1   18   18    0    0   -0.2356144428E+01   -0.6412258625E+01   -0.5363356113E+01    0.8686326981E+01    0.1349625438E+00    0    0
  111    1   18   18    0    0   -0.1483513355E+01   -0.4437420845E+01   -0.3303068876E+01    0.5728873730E+01    0.1349641234E+00    0    0
  211    1   18   18    0    0   -0.5032347202E+01   -0.1425636959E+02   -0.1226952648E+02    0.1947124481E+02    0.1395675391E+00    0    0
</event>
<event>
   19 9999    1    0.9119999695E+02    0.7565275169E-02    0.1185000000E+00
   11   -1    0    0    0    0    0.0000000000E+00    0.0000000000E+00    0.8000000000E+02    0.8000000000E+02    0.5109988851E-03    0    0
  -11   -1    0    0    0    0    0.0000000000E+00    0.0000000000E+00   -0.8000000000E+02    0.8000000000E+02    0.5109988851E-03    0    0
  -24    2    1    2    0    0    0.1661085963E+01    0.2860964012E+02    0.1989344978E+02    0.8788536835E+02    0.8066484833E+02    0    0
   24    2    1    2    0    0   -0.1661171079E+01   -0.2860963440E+02   -0.2188117599E+02    0.7012690735E+02    0.6014753723E+02    0    0
   22    1    1    2    0    0    0.8501319098E-04   -0.5671167401E-05    0.1987726092E+01    0.1987726092E+01    0.0000000000E+00    0    0
   15    2    3    3    0    0   -0.1312117386E+02   -0.5333028316E+01    0.3336040676E+00    0.1427850056E+02    0.1777029991E+01    0    0
  -16    1    3    3    0    0    0.3208740234E+02    0.4033171082E+02    0.1965572357E+02    0.5515972900E+02    0.0000000000E+00    0    0
   22    1    3    3    0    0   -0.1730514145E+02   -0.6389040947E+01   -0.9587775916E-01    0.1844713974E+02    0.0000000000E+00    0    0
   16    1    4    4    0    0   -0.2703268242E+02   -0.1659936714E+02    0.3913760900E+01    0.3196282959E+02    0.0000000000E+00    0    0
  -15    2    4    4    0    0    0.2537151146E+02   -0.1201026726E+02   -0.2579493713E+02    0.3816407776E+02    0.1777029991E+01    0    0
   16    1    6    6    0    0   -0.1597504973E+01   -0.4919771850E+00   -0.1099414974E+00    0.1675157547E+01    0.4920811625E-03    0    0
  -24    2    6    6    0    0   -0.1152420521E+02   -0.4841268063E+01    0.4435592294E+00    0.1260392666E+02    0.1554665446E+01    0    0
  130    1   12   12    0    0   -0.4010960579E+01   -0.1360490084E+01   -0.2939499728E-01    0.4264661789E+01    0.4977200627E+00    0    0
 -211    1   12   12    0    0   -0.3764981985E+01   -0.1765636802E+01    0.4704578519E+00    0.4187287807E+01    0.1395691931E+00    0    0
  130    1   12   12    0    0   -0.3748260498E+01   -0.1715140343E+01    0.2496449277E-02    0.4151975632E+01    0.4977200031E+00    0    0
  -16    1   10   10    0    0    0.5106587887E+01   -0.2149600506E+01   -0.5095159054E+01    0.7527195454E+01    0.7780486339E-04    0    0
   24    2   10   10    0    0    0.2026592255E+02   -0.9861140251E+01   -0.2070079422E+02    0.3063838387E+02    0.1495999455E+01    0    0
  321    1   17   17    0    0    0.1243782139E+02   -0.5657426357E+01   -0.1198984051E+02    0.1818531990E+02    0.4936670363E+00    0    0
  130    1   17   17    0    0    0.7828099251E+01   -0.4203712463E+01   -0.8710951805E+01    0.1245306110E+02    0.4977201223E+00    0    0
</event>
<event>
   20 9999    1    0.9119999695E+02    0.7565275169E-02    0.1185000000E+00
   11   -1    0    0    0    0    0.0000000000E+00    0.0000000000E+00    0.8000000000E+02    0.8000000000E+02    0.5109988851E-03    0    0
  -11   -1    0    0    0    0    0.0000000000E+00    0.0000000000E+00   -0.8000000000E+02    0.8000000000E+02    0.5109988851E-03    0    0
  -24    2    1    2    0    0    0.6196263790E+01   -0.1499082565E+02   -0.1606708336E+02    0.8321988678E+02    0.8002674866E+02    0    0
   24    2    1    2    0    0   -0.6196117878E+01    0.1499254322E+02    0.1349900436E+02    0.7421055603E+02    0.7114643097E+02    0    0
   22    1    1    2    0    0    0.9555177530E-04   -0.8022654583E-05    0.2567810535E+01    0.2567810535E+01    0.0000000000E+00    0    0
   22    1    1    2    0    0   -0.2415040508E-03   -0.1709248987E-02    0.2676440927E-03    0.1746851369E-02    0.0000000000E+00    0    0
   15    2    3    3    0    0   -0.1318422127E+02    0.2273002243E+02    0.1531205845E+02    0.3046464348E+02    0.1777029991E+01    0    0
  -16    1    3    3    0    0    0.1938048553E+02   -0.3772084808E+02   -0.3137914085E+02    0.5275524521E+02    0.0000000000E+00    0    0
   16    1    4    4    0    0    0.2447390938E+02    0.1803255653E+02   -0.1343968201E+02    0.3323808670E+02    0.0000000000E+00    0    0
  -15    2    4    4    0    0   -0.3067002678E+02   -0.3040014505E+01    0.2693868637E+02    0.4097246552E+02    0.1777029991E+01    0    0
   16    1    7    7    0    0   -0.1819506049E+01    0.3629307032E+01    0.2681659460E+01    0.4865569592E+01    0.3558930475E-03    0    0
  -24    2    7    7    0    0   -0.1136523342E+02    0.1910160828E+02    0.1263100147E+02    0.2560027313E+02    0.1338571668E+01    0    0
 -321    1   12   12    0    0   -0.8523448944E+01    0.1480467224E+02    0.9310271263E+01    0.1946156120E+02    0.4936669469E+00    0    0
 -211    1   12   12    0    0   -0.1650442600E+01    0.2580806255E+01    0.2069271088E+01    0.3699443817E+01    0.1395681649E+00    0    0
  211    1   12   12    0    0   -0.1191342354E+01    0.1716131330E+01    0.1251459837E+01    0.2439269304E+01    0.1395680010E+00    0    0
  -16    1   10   10    0    0   -0.4897197247E+01   -0.5917896032E+00    0.4392684460E+01    0.6605182171E+01    0.3537604643E-03    0    0
   24    2   10   10    0    0   -0.2577403831E+02   -0.2448344469E+01    0.2254706192E+02    0.3436889648E+02    0.1598624349E+01    0    0
  211    1   17   17    0    0   -0.7462090492E+01   -0.5769627690E+00    0.6560027599E+01    0.9953347206E+01    0.1395679414E+00    0    0
  310    1   17   17    0    0   -0.1202427578E+02   -0.7827613950E+00    0.1085072899E+02    0.1622288322E+02    0.4977200329E+00    0    0
  111    1   17   17    0    0   -0.6287670135E+01   -0.1088620305E+01    0.5136304855E+01    0.8192663193E+01    0.1349634528E+00    0    0
</event>
<event>
   20 9999    1    0.9119999695E+02    0.7565275169E-02    0.1185000000E+00
   11   -1    0    0    0    0    0.0000000000E+00    0.0000000000E+00    0.8000000000E+02    0.8000000000E+02    0.5109988851E-03    0    0
  -11   -1    0    0    0    0    0.0000000000E+00    0.0000000000E+00   -0.8000000000E+02    0.8000000000E+02    0.5109988851E-03    0    0
  -24    2    1    2    0    0   -0.1755744815E+01   -0.3554004192E+01   -0.1464751244E+02    0.7870471191E+02    0.7722803497E+02    0    0
   24    2    1    2    0    0    0.1755807638E+01    0.3554109812E+01    0.1464413548E+02    0.8129190826E+02    0.7986368561E+02    0    0
   22    1    1    2    0    0   -0.6286714779E-04   -0.1057916670E-03    0.3376386361E-02    0.3378628287E-02    0.0000000000E+00    0    0
   15    2    3    3    0    0    0.1565172100E+02   -0.2785379219E+02    0.1610063362E+02    0.3582175827E+02    0.1777029991E+01    0    0
  -16    1    3    3    0    0   -0.1740746498E+02    0.2429978752E+02   -0.3074814606E+02    0.4288295746E+02    0.0000000000E+00    0    0
   16    1    4    4    0    0   -0.1945693398E+02   -0.2020443916E+02    0.3392385483E+02    0.4401839828E+02    0.0000000000E+00    0    0
  -15    2    4    4    0    0    0.2121274185E+02    0.2375854874E+02   -0.1927971840E+02    0.3727350616E+02    0.1777029991E+01    0    0
   16    1    6    6    0    0    0.3821169853E+01   -0.6998590946E+01    0.4241662025E+01    0.9031794548E+01    0.6164248334E-03    0    0
  -24    2    6    6    0    0    0.1183116627E+02   -0.2085629654E+02    0.1185960484E+02    0.2679137230E+02    0.1471662402E+01    0    0
  111    1   11   11    0    0    0.1461932063E+01   -0.2223786116E+01    0.1060267925E+01    0.2867900372E+01    0.1349626780E+00    0    0
  111    1   11   11    0    0    0.2805696964E+01   -0.5246231556E+01    0.3244680166E+01    0.6777982235E+01    0.1349636316E+00    0    0
  111    1   11   11    0    0    0.1344774127E+01   -0.1950168252E+01    0.1205728412E+01    0.2661497593E+01    0.1349641085E+00    0    0
 -211    1   11   11    0    0    0.6218765736E+01   -0.1143611431E+02    0.6348931313E+01    0.1448399639E+02    0.1395680308E+00    0    0
  -16    1    9    9    0    0    0.6750499249E+01    0.7031884193E+01   -0.5753405571E+01    0.1131893635E+02    0.4228639591E-03    0    0
   24    2    9    9    0    0    0.1446307659E+02    0.1672759819E+02   -0.1352707005E+02    0.2595603752E+02    0.1319514751E+01    0    0
  211    1   17   17    0    0    0.8730432510E+01    0.9921265602E+01   -0.8348202705E+01    0.1563214397E+02    0.1395683289E+00    0    0
  111    1   17   17    0    0    0.2294422865E+01    0.3158519268E+01   -0.2533734083E+01    0.4656033039E+01    0.1349640638E+00    0    0
   22    1   17   17    0    0    0.3438222170E+01    0.3647814274E+01   -0.2645133972E+01    0.5667861462E+01    0.1220703125E-03    0    0
</event>
<event>
   19 9999    1    0.9119999695E+02    0.7565275169E-02    0.1185000000E+00
   11   -1    0    0    0    0    0.0000000000E+00    0.0000000000E+00    0.8000000000E+02    0.8000000000E+02    0.5109988851E-03    0    0
  -11   -1    0    0    0    0    0.0000000000E+00    0.0000000000E+00   -0.8000000000E+02    0.8000000000E+02    0.5109988851E-03    0    0
  -24    2    1    2    0    0    0.2024916840E+02   -0.7062129974E+01    0.2213085938E+02    0.7403262329E+02    0.6731383514E+02    0    0
   24    2    1    2    0    0   -0.2024916840E+02    0.7062129974E+01   -0.2213085938E+02    0.8596737671E+02    0.8025404358E+02    0    0
   15    2    3    3    0    0    0.3770767593E+02   -0.2496774864E+02    0.1054821301E+02    0.4647235870E+02    0.1777029991E+01    0    0
  -16    1    3    3    0    0   -0.1745850754E+02    0.1790561867E+02    0.1158264732E+02    0.2756026840E+02    0.0000000000E+00    0    0
   16    1    4    4    0    0   -0.1300918007E+02    0.1922223091E+02    0.2632717514E+02    0.3509775925E+02    0.0000000000E+00    0    0
  -15    2    4    4    0    0   -0.6320295811E+01   -0.1247292042E+02   -0.4731315613E+02    0.4936814117E+02    0.1777029991E+01    0    0
   22    1    4    4    0    0   -0.9196926355E+00    0.3128200471E+00   -0.1144876719E+01    0.1501477242E+01    0.0000000000E+00    0    0
   16    1    5    5    0    0    0.3458040953E+01   -0.2063076019E+01    0.1054740548E+01    0.4162548065E+01    0.5725605297E-03    0    0
  -24    2    5    5    0    0    0.3425111771E+02   -0.2290565300E+02    0.9493887901E+01    0.4231163788E+02    0.1527271628E+01    0    0
 -211    1   11   11    0    0    0.2351522684E+01   -0.1630603433E+01    0.5398427844E+00    0.2915379286E+01    0.1395678520E+00    0    0
 -211    1   11   11    0    0    0.1404826355E+02   -0.9057774544E+01    0.3806553125E+01    0.1714369583E+02    0.1395680457E+00    0    0
  211    1   11   11    0    0    0.3638225317E+01   -0.2336232662E+01    0.1147636533E+01    0.4475624561E+01    0.1395679563E+00    0    0
  111    1   11   11    0    0    0.9529283047E+00   -0.5894981027E+00    0.2905605435E+00    0.1165427446E+01    0.1349639744E+00    0    0
  111    1   11   11    0    0    0.1326017761E+02   -0.9291543961E+01    0.3709294081E+01    0.1661150742E+02    0.1349637359E+00    0    0
  -16    1    8    8    0    0   -0.1147172228E+00   -0.3972834945E+00   -0.2021857738E+01    0.2063711643E+01    0.1141863249E-03    0    0
  -11    1    8    8    0    0   -0.3829461336E+01   -0.7687785625E+01   -0.2620342445E+02    0.2757510948E+02    0.5980199785E-03    0    0
   12    1    8    8    0    0   -0.2376376629E+01   -0.4388367653E+01   -0.1908982849E+02    0.1973136139E+02    0.0000000000E+00    0    0
</event>
<event>
   22 9999    1    0.9119999695E+02    0.7565275169E-02    0.1185000000E+00
   11   -1    0    0    0    0    0.0000000000E+00    0.0000000000E+00    0.8000000000E+02    0.8000000000E+02    0.5109988851E-03    0    0
  -11   -1    0    0    0    0    0.0000000000E+00    0.0000000000E+00   -0.8000000000E+02    0.8000000000E+02    0.5109988851E-03    0    0
  -24    2    1    2    0    0   -0.1607069969E+02    0.3475167751E+01    0.3590298176E+01    0.8119755554E+02    0.7943430328E+02    0    0
   24    2    1    2    0    0    0.1607069969E+02   -0.3475167751E+01   -0.3590298176E+01    0.7880244446E+02    0.7698435211E+02    0    0
   15    2    3    3    0    0   -0.4743599701E+02    0.1113794708E+02    0.3833042622E+01    0.4890887451E+02    0.1777029991E+01    0    0
  -16    1    3    3    0    0    0.3136529922E+02   -0.7662779331E+01   -0.2427445203E+00    0.3228868484E+02    0.0000000000E+00    0    0
   16    1    4    4    0    0   -0.1513974094E+02   -0.3131106567E+02    0.7330433846E+01    0.3554335022E+02    0.0000000000E+00    0    0
  -15    2    4    4    0    0    0.3121044159E+02    0.2783589745E+02   -0.1092073250E+02    0.4325909042E+02    0.1777029991E+01    0    0
   16    1    5    5    0    0   -0.9222526550E+01    0.1889596224E+01    0.5895403624E+00    0.9432557106E+01    0.8631674427E-04    0    0
  -24    2    5    5    0    0   -0.3821533966E+02    0.9248789787E+01    0.3243653297E+01    0.3947824097E+02    0.1434579015E+01    0    0
 -211    1   10   10    0    0   -0.7333814144E+01    0.1633017182E+01    0.5813512206E+00    0.7537176132E+01    0.1395679861E+00    0    0
 -211    1   10   10    0    0   -0.1790209174E+01    0.4043143690E+00    0.8301699907E-01    0.1842468500E+01    0.1395680010E+00    0    0
 -211    1   10   10    0    0   -0.1663861275E+02    0.3920389175E+01    0.1615311384E+01    0.1717095184E+02    0.1395679563E+00    0    0
  211    1   10   10    0    0   -0.8789610863E+01    0.2424278498E+01    0.8605605960E+00    0.9159390450E+01    0.1395680457E+00    0    0
  211    1   10   10    0    0   -0.3663092136E+01    0.8667899370E+00    0.1034130380E+00    0.3768254519E+01    0.1395680159E+00    0    0
  -16    1    8    8    0    0    0.1547362804E+01    0.1325297713E+01   -0.7017684579E+00    0.2154814243E+01    0.6103515625E-04    0    0
   24    2    8    8    0    0    0.2966430473E+02    0.2651169395E+02   -0.1021939278E+02    0.4110597610E+02    0.1557093263E+01    0    0
  211    1   17   17    0    0    0.3710333109E+01    0.3268102646E+01   -0.1284228206E+01    0.5110360622E+01    0.1395679861E+00    0    0
  211    1   17   17    0    0    0.4072921753E+01    0.3212096214E+01   -0.1386177778E+01    0.5370960712E+01    0.1395679861E+00    0    0
  211    1   17   17    0    0    0.4752715111E+01    0.4084254742E+01   -0.1406618476E+01    0.6423977852E+01    0.1395679414E+00    0    0
 -211    1   17   17    0    0    0.1190429115E+02    0.1083552074E+02   -0.4187594414E+01    0.1663358307E+02    0.1395679116E+00    0    0
 -211    1   17   17    0    0    0.5224042892E+01    0.5111718655E+01   -0.1954774141E+01    0.7567094326E+01    0.1395679414E+00    0    0
</event>
<event>
   16 9999    1    0.9119999695E+02    0.7565275169E-02    0.1185000000E+00
   11   -1    0    0    0    0    0.0000000000E+00    0.0000000000E+00    0.8000000000E+02    0.8000000000E+02    0.5109988851E-03    0    0
  -11   -1    0    0    0    0    0.0000000000E+00    0.0000000000E+00   -0.8000000000E+02    0.8000000000E+02    0.5109988851E-03    0    0
  -24    2    1    2    0    0    0.9323222041E+00    0.7173849106E+01   -0.9359492302E+01    0.7769963837E+02    0.7679388428E+02    0    0
   24    2    1    2    0    0   -0.9323647618E+00   -0.7173843384E+01    0.9480098724E+01    0.8217975616E+02    0.8130993652E+02    0    0
   22    1    1    2    0    0    0.4253771476E-04   -0.5505797162E-05   -0.1206061468E+00    0.1206061542E+00    0.0000000000E+00    0    0
   15    2    3    3    0    0    0.1406842804E+02    0.3861946106E+02   -0.1366289043E+02    0.4334992218E+02    0.1777029991E+01    0    0
  -16    1    3    3    0    0   -0.1313610554E+02   -0.3144561195E+02    0.4303398132E+01    0.3434971619E+02    0.0000000000E+00    0    0
   16    1    4    4    0    0   -0.3967769861E+01   -0.2174895048E+01    0.4545986176E+02    0.4568448639E+02    0.0000000000E+00    0    0
  -15    2    4    4    0    0    0.3035405159E+01   -0.4998948574E+01   -0.3597976303E+02    0.3649526596E+02    0.1777029991E+01    0    0
   16    1    6    6    0    0    0.1431584954E+01    0.3298726320E+01   -0.1458730578E+01    0.3880583286E+01    0.1614838402E-03    0    0
   13    1    6    6    0    0    0.1253806019E+02    0.3453028107E+02   -0.1200759697E+02    0.3864889145E+02    0.1056589782E+00    0    0
  -14    1    6    6    0    0    0.9933689237E-01    0.7919735909E+00   -0.1971009076E+00    0.8221549392E+00    0.1141863249E-03    0    0
  -16    1    9    9    0    0    0.2404190540E+01   -0.4178463936E+01   -0.2809866333E+02    0.2850920105E+02    0.2363881504E-03    0    0
  213    2    9    9    0    0    0.6313341856E+00   -0.8206813931E+00   -0.7882517815E+01    0.7987501621E+01    0.7707104683E+00    0    0
  211    1   14   14    0    0    0.4762867093E-01    0.1061384231E+00   -0.8809007406E+00    0.8994437456E+00    0.1395679116E+00    0    0
  111    1   14   14    0    0    0.5837053657E+00   -0.9268196225E+00   -0.7001615524E+01    0.7088056564E+01    0.1349641085E+00    0    0
</event>
<event>
   19 9999    1    0.9119999695E+02    0.7565275169E-02    0.1185000000E+00
   11   -1    0    0    0    0    0.0000000000E+00    0.0000000000E+00    0.8000000000E+02    0.8000000000E+02    0.5109988851E-03    0    0
  -11   -1    0    0    0    0    0.0000000000E+00    0.0000000000E+00   -0.8000000000E+02    0.8000000000E+02    0.5109988851E-03    0    0
  -24    2    1    2    0    0    0.6771876812E+01   -0.4954300880E+01    0.3155966520E+01    0.7834931946E+02    0.7783477020E+02    0    0
   24    2    1    2    0    0   -0.6771876812E+01    0.4954300880E+01   -0.3155966520E+01    0.8165068054E+02    0.8115707397E+02    0    0
   15    2    3    3    0    0    0.3976665115E+02    0.1371448040E+01    0.1524063301E+02    0.4264624405E+02    0.1777029991E+01    0    0
  -16    1    3    3    0    0   -0.3299477386E+02   -0.6325748920E+01   -0.1208466721E+02    0.3570307159E+02    0.0000000000E+00    0    0
   16    1    4    4    0    0    0.3562483215E+02    0.1383211613E+01   -0.1299270821E+02    0.3794538879E+02    0.0000000000E+00    0    0
  -15    2    4    4    0    0   -0.4239670944E+02    0.3571089506E+01    0.9836741447E+01    0.4370529556E+02    0.1777029991E+01    0    0
   16    1    5    5    0    0    0.5315773487E+01    0.2154609412E+00    0.1811291575E+01    0.5620022297E+01    0.2363881504E-03    0    0
  -24    2    5    5    0    0    0.3445244217E+02    0.1156041145E+01    0.1342994118E+02    0.3702790070E+02    0.1547530651E+01    0    0
  130    1   10   10    0    0    0.2105098152E+02    0.6349017024E+00    0.8260762215E+01    0.2262818718E+02    0.4977199435E+00    0    0
 -211    1   10   10    0    0    0.6087322235E+01    0.1302777529E+00    0.2094762802E+01    0.6440495014E+01    0.1395680457E+00    0    0
  130    1   10   10    0    0    0.7314137459E+01    0.3908616602E+00    0.3074416399E+01    0.7959217548E+01    0.4977200031E+00    0    0
  -16    1    8    8    0    0   -0.1373883820E+02    0.1441144228E+01    0.3468424082E+01    0.1424298191E+02    0.8631674427E-04    0    0
   24    2    8    8    0    0   -0.2865954018E+02    0.2130085945E+01    0.6368704319E+01    0.2946403503E+02    0.1289365888E+01    0    0
  111    1   15   15    0    0   -0.1332313156E+02    0.8598200083E+00    0.3051520109E+01    0.1369580650E+02    0.1349640787E+00    0    0
  111    1   15   15    0    0   -0.4070425510E+01    0.1748099923E+00    0.7574615479E+00    0.4146189213E+01    0.1349638849E+00    0    0
  111    1   15   15    0    0   -0.2469889879E+01    0.1741791703E-01    0.5634757280E+00    0.2537002087E+01    0.1349640042E+00    0    0
  211    1   15   15    0    0   -0.8796095848E+01    0.1078037977E+01    0.1996247411E+01    0.9085040092E+01    0.1395679861E+00    0    0
</event>
<event>
   23 9999    1    0.9119999695E+02    0.7565275169E-02    0.1185000000E+00
   11   -1    0    0    0    0    0.0000000000E+00    0.0000000000E+00    0.8000000000E+02    0.8000000000E+02    0.5109988851E-03    0    0
  -11   -1    0    0    0    0    0.0000000000E+00    0.0000000000E+00   -0.8000000000E+02    0.8000000000E+02    0.5109988851E-03    0    0
  -24    2    1    2    0    0    0.1747960663E+02    0.2392998695E+02   -0.1733650327E+01    0.8465103149E+02    0.7927554321E+02    0    0
   24    2    1    2    0    0   -0.1747960663E+02   -0.2392998695E+02    0.1733650327E+01    0.7534896851E+02    0.6925518036E+02    0    0
   15    2    3    3    0    0   -0.1323523808E+02   -0.1481970596E+02    0.2209025383E+02    0.2976461601E+02    0.1777029991E+01    0    0
  -16    1    3    3    0    0    0.3071484375E+02    0.3874969482E+02   -0.2382390594E+02    0.5488641739E+02    0.0000000000E+00    0    0
   16    1    4    4    0    0   -0.4159813309E+02   -0.2356142616E+02    0.1165321922E+02    0.4920714569E+02    0.0000000000E+00    0    0
  -15    2    4    4    0    0    0.2411852646E+02   -0.3685597777E+00   -0.9919569016E+01    0.2614182091E+02    0.1777029991E+01    0    0
   16    1    5    5    0    0   -0.2050691843E+01   -0.2147345066E+01    0.3079987526E+01    0.4278171539E+01    0.4315837214E-04    0    0
  -24    2    5    5    0    0   -0.1118506813E+02   -0.1267294502E+02    0.1901113701E+02    0.2548761749E+02    0.1576719284E+01    0    0
 -211    1   10   10    0    0   -0.1037007332E+01   -0.1531524539E+01    0.2063777685E+01    0.2774816990E+01    0.1395679563E+00    0    0
 -211    1   10   10    0    0   -0.3848629296E+00   -0.3901491463E+00    0.6062620282E+00    0.8290770054E+00    0.1395679861E+00    0    0
 -211    1   10   10    0    0   -0.4705695629E+01   -0.5364283085E+01    0.8167900085E+01    0.1084680462E+02    0.1395679414E+00    0    0
  211    1   10   10    0    0   -0.2218673229E+01   -0.2757164717E+01    0.4062192440E+01    0.5389374256E+01    0.1395679414E+00    0    0
  211    1   10   10    0    0   -0.2838828564E+01   -0.2629823446E+01    0.4111005306E+01    0.5647544861E+01    0.1395679414E+00    0    0
  -16    1    8    8    0    0    0.3885161877E+01   -0.2245715633E-01   -0.1299839616E+01    0.4096897602E+01    0.8631674427E-04    0    0
   24    2    8    8    0    0    0.2023431396E+02   -0.3461171091E+00   -0.8620120049E+01    0.2204595184E+02    0.1473201036E+01    0    0
  211    1   17   17    0    0    0.7916010857E+01   -0.3826562762E+00   -0.3713419914E+01    0.8753206253E+01    0.1395679563E+00    0    0
  211    1   17   17    0    0    0.1118598342E+01   -0.1236063167E+00   -0.5100395679E+00    0.1243446946E+01    0.1395680010E+00    0    0
 -211    1   17   17    0    0    0.1430315852E+01    0.3423013538E-01   -0.5724128485E+00    0.1547291398E+01    0.1395680010E+00    0    0
  111    1   17   17    0    0    0.2662150621E+01    0.1843949407E-01   -0.1108446121E+01    0.2886910915E+01    0.1349639893E+00    0    0
  111    1   17   17    0    0    0.2552137136E+01    0.8621648699E-01   -0.9904327393E+00    0.2742263556E+01    0.1349639744E+00    0    0
  111    1   17   17    0    0    0.4555100918E+01    0.2125937305E-01   -0.1725368619E+01    0.4872833729E+01    0.1349639893E+00    0    0
</event>
<event>
   17 9999    1    0.9119999695E+02    0.7565275169E-02    0.1185000000E+00
   11   -1    0    0    0    0    0.0000000000E+00    0.0000000000E+00    0.8000000000E+02    0.8000000000E+02    0.5109988851E-03    0    0
  -11   -1    0    0    0    0    0.0000000000E+00    0.0000000000E+00   -0.8000000000E+02    0.8000000000E+02    0.5109988851E-03    0    0
  -24    2    1    2    0    0   -0.2973431349E+00   -0.1289939880E+02   -0.1432188511E+02    0.7206002808E+02    0.6943376923E+02    0    0
   24    2    1    2    0    0    0.2979043126E+00    0.1290148067E+02    0.1423100185E+02    0.8784906769E+02    0.8572280884E+02    0    0
   22    1    1    2    0    0   -0.5611547967E-03   -0.2081566956E-02    0.9088339657E-01    0.9090895951E-01    0.0000000000E+00    0    0
   15    2    3    3    0    0   -0.8872018814E+01   -0.3825517654E+02    0.4163893700E+01    0.3953058624E+02    0.1777029991E+01    0    0
  -16    1    3    3    0    0    0.8574675560E+01    0.2535577774E+02   -0.1848577881E+02    0.3252944183E+02    0.0000000000E+00    0    0
   16    1    4    4    0    0   -0.1078106463E+00    0.7122673988E+01    0.5053917694E+02    0.5103873444E+02    0.0000000000E+00    0    0
  -15    2    4    4    0    0    0.4057149589E+00    0.5778806210E+01   -0.3630817413E+02    0.3681032944E+02    0.1777029991E+01    0    0
   16    1    6    6    0    0   -0.2585677505E+00   -0.8592010140E+00    0.2656864226E+00    0.9357739687E+00    0.1556097268E-03    0    0
  -24    2    6    6    0    0   -0.8613801003E+01   -0.3739748383E+02    0.3898371458E+01    0.3859636688E+02    0.1308828831E+01    0    0
 -211    1   11   11    0    0   -0.1019240379E+01   -0.4317739487E+01    0.4566021860E+00    0.4462027550E+01    0.1395675987E+00    0    0
 -211    1   11   11    0    0   -0.4316452026E+01   -0.1990563393E+02    0.2524163485E+01    0.2052454376E+02    0.1395681798E+00    0    0
  211    1   11   11    0    0   -0.1657373667E+01   -0.6786790371E+01    0.4963047802E+00    0.7005227566E+01    0.1395680159E+00    0    0
  111    1   11   11    0    0   -0.1620735526E+01   -0.6387320518E+01    0.4213010669E+00    0.6604570866E+01    0.1349638402E+00    0    0
  -16    1    9    9    0    0   -0.8620094508E-01    0.4190815926E+01   -0.2886792374E+02    0.2917066002E+02    0.3636589099E-03    0    0
  321    1    9    9    0    0    0.4919318855E+00    0.1588218331E+01   -0.7441679478E+01    0.7641121387E+01    0.4936669767E+00    0    0
</event>
<event>
   19 9999    1    0.9119999695E+02    0.7565275169E-02    0.1185000000E+00
   11   -1    0    0    0    0    0.0000000000E+00    0.0000000000E+00    0.8000000000E+02    0.8000000000E+02    0.5109988851E-03    0    0
  -11   -1    0    0    0    0    0.0000000000E+00    0.0000000000E+00   -0.8000000000E+02    0.8000000000E+02    0.5109988851E-03    0    0
  -24    2    1    2    0    0   -0.2346579170E+02    0.9363409042E+01    0.1950148582E+02    0.7361084747E+02    0.6633198547E+02    0    0
   24    2    1    2    0    0    0.2346586227E+02   -0.9363360405E+01   -0.1928273773E+02    0.8616987610E+02    0.8009434509E+02    0    0
   22    1    1    2    0    0   -0.4215264198E-05    0.6951408977E-05   -0.2185910195E+00    0.2185910195E+00    0.0000000000E+00    0    0
   22    1    1    2    0    0    0.1387900710E-06   -0.1407785817E-06   -0.4136810603E-03    0.4136810894E-03    0.0000000000E+00    0    0
   22    1    1    2    0    0   -0.6709246372E-04   -0.5580930156E-04    0.2576668921E-03    0.2720446791E-03    0.0000000000E+00    0    0
   15    2    3    3    0    0   -0.6115172386E+01   -0.2854741478E+02    0.6842299938E+01    0.3003872681E+02    0.1777029991E+01    0    0
  -16    1    3    3    0    0   -0.1735061836E+02    0.3791082382E+02    0.1265918541E+02    0.4357212067E+02    0.0000000000E+00    0    0
   16    1    4    4    0    0   -0.3809819698E+01   -0.9745399475E+01    0.2892033386E+02    0.3075505257E+02    0.0000000000E+00    0    0
  -15    2    4    4    0    0    0.2727568245E+02    0.3820391595E+00   -0.4820307159E+02    0.5541482544E+02    0.1777029991E+01    0    0
   16    1    8    8    0    0   -0.3475490957E-01   -0.1135103498E-01    0.5924847443E-02    0.3703568503E-01    0.4620456020E-03    0    0
  -24    2    8    8    0    0   -0.6080658436E+01   -0.2853718948E+02    0.6836645126E+01    0.3000287628E+02    0.1444735885E+01    0    0
 -211    1   13   13    0    0   -0.2263095140E+01   -0.1011106300E+02    0.2814754486E+01    0.1073766804E+02    0.1395681798E+00    0    0
 -211    1   13   13    0    0   -0.2162777483E+00   -0.8669767976E+00    0.1155204773E+00    0.9117286205E+00    0.1395681202E+00    0    0
  211    1   13   13    0    0   -0.3075789928E+01   -0.1554379749E+02    0.3440584421E+01    0.1621503067E+02    0.1395680904E+00    0    0
  111    1   13   13    0    0   -0.5254957676E+00   -0.2015353680E+01    0.4657858014E+00    0.2138449907E+01    0.1349639893E+00    0    0
  -16    1   11   11    0    0    0.1158745003E+02   -0.6537764072E+00   -0.2056056213E+02    0.2361002159E+02    0.3558930475E-03    0    0
  321    1   11   11    0    0    0.1568930721E+02    0.1035830617E+01   -0.2764440918E+02    0.3180698586E+02    0.4936670065E+00    0    0
</event>
<event>
   22 9999    1    0.9119999695E+02    0.7565275169E-02    0.1185000000E+00
   11   -1    0    0    0    0    0.0000000000E+00    0.0000000000E+00    0.8000000000E+02    0.8000000000E+02    0.5109988851E-03    0    0
  -11   -1    0    0    0    0    0.0000000000E+00    0.0000000000E+00   -0.8000000000E+02    0.8000000000E+02    0.5109988851E-03    0    0
  -24    2    1    2    0    0   -0.7147369385E+01   -0.8093653321E+00   -0.2009841204E+01    0.7813545990E+02    0.7777769470E+02    0    0
   24    2    1    2    0    0    0.7144561768E+01    0.8074659109E+00    0.2097002745E+01    0.8171768951E+02    0.8137374115E+02    0    0
   22    1    1    2    0    0   -0.3972636478E-05    0.3288647008E-06   -0.1107429191E+00    0.1107429191E+00    0.0000000000E+00    0    0
   22    1    1    2    0    0   -0.1567145659E-05   -0.2101941305E-06    0.2912294865E-01    0.2912294865E-01    0.0000000000E+00    0    0
   22    1    1    2    0    0    0.3100914648E-02    0.2203552285E-02   -0.5228336435E-02    0.6465818733E-02    0.0000000000E+00    0    0
   22    1    1    2    0    0   -0.2879757667E-03   -0.3042150056E-03   -0.3133347782E-03    0.5231209216E-03    0.0000000000E+00    0    0
   15    2    3    3    0    0   -0.3359768677E+02   -0.2504936981E+02    0.2250108719E+01    0.4200590897E+02    0.1777029991E+01    0    0
  -16    1    3    3    0    0    0.2645031738E+02    0.2424000549E+02   -0.4259950161E+01    0.3612955093E+02    0.0000000000E+00    0    0
   16    1    4    4    0    0   -0.1584711838E+02    0.1676314354E+02    0.3282344437E+02    0.4011873245E+02    0.0000000000E+00    0    0
  -15    2    4    4    0    0    0.2299168015E+02   -0.1595567703E+02   -0.3072644234E+02    0.4159895706E+02    0.1777029991E+01    0    0
   16    1    9    9    0    0   -0.3812778711E+01   -0.2544436693E+01    0.1019101962E+00    0.4584956646E+01    0.6194391754E-03    0    0
  -24    2    9    9    0    0   -0.2978622818E+02   -0.2250591850E+02    0.2148287058E+01    0.3742260361E+02    0.1449242353E+01    0    0
  310    1   14   14    0    0   -0.7111352921E+01   -0.5305435658E+01    0.4534856975E+00    0.8897885323E+01    0.4977201521E+00    0    0
 -211    1   14   14    0    0   -0.1144557095E+02   -0.8875100136E+01    0.1051907897E+01    0.1452220631E+02    0.1395679116E+00    0    0
  130    1   14   14    0    0   -0.1122930908E+02   -0.8325387001E+01    0.6428938508E+00    0.1400251770E+02    0.4977200031E+00    0    0
  -16    1   12   12    0    0    0.5345336437E+01   -0.3563255310E+01   -0.7284898758E+01    0.9712835312E+01    0.4315837286E-03    0    0
   24    2   12   12    0    0    0.1764724922E+02   -0.1239305019E+02   -0.2344275284E+02    0.3188775826E+02    0.1501120567E+01    0    0
  211    1   19   19    0    0    0.1431380510E+01   -0.1108751774E+01   -0.1782981038E+01    0.2544932604E+01    0.1395679712E+00    0    0
  130    1   19   19    0    0    0.3943939209E+01   -0.2758538961E+01   -0.4842954159E+01    0.6845883846E+01    0.4977200031E+00    0    0
  111    1   19   19    0    0    0.1227192688E+02   -0.8525757790E+01   -0.1681681442E+02    0.2249693871E+02    0.1349640340E+00    0    0
</event>
<event>
   20 9999    1    0.9119999695E+02    0.7565275169E-02    0.1185000000E+00
   11   -1    0    0    0    0    0.0000000000E+00    0.0000000000E+00    0.8000000000E+02    0.8000000000E+02    0.5109988851E-03    0    0
  -11   -1    0    0    0    0    0.0000000000E+00    0.0000000000E+00   -0.8000000000E+02    0.8000000000E+02    0.5109988851E-03    0    0
  -24    2    1    2    0    0   -0.5802496433E+01    0.1284839821E+02    0.9088219643E+01    0.8201074219E+02    0.8027712250E+02    0    0
   24    2    1    2    0    0    0.5802495956E+01   -0.1284839821E+02   -0.9088425636E+01    0.7798905182E+02    0.7616391754E+02    0    0
   22    1    1    2    0    0    0.5611452139E-06    0.6412939229E-06    0.2055853838E-03    0.2055871446E-03    0.0000000000E+00    0    0
   15    2    3    3    0    0   -0.1776780891E+02   -0.2802391243E+02   -0.1089208317E+02    0.3496898651E+02    0.1777029991E+01    0    0
  -16    1    3    3    0    0    0.1196531296E+02    0.4087231064E+02    0.1998030281E+02    0.4704175949E+02    0.0000000000E+00    0    0
   16    1    4    4    0    0    0.2364804268E+02   -0.3894941330E+02   -0.2448076010E+01    0.4563200378E+02    0.0000000000E+00    0    0
  -15    2    4    4    0    0   -0.1784554672E+02    0.2610101318E+02   -0.6640349388E+01    0.3235704803E+02    0.1777029991E+01    0    0
   16    1    6    6    0    0   -0.5438847065E+01   -0.7955145836E+01   -0.3576344967E+01    0.1027889347E+02    0.3452669771E-03    0    0
  -24    2    6    6    0    0   -0.1232966232E+02   -0.2006987000E+02   -0.7316167831E+01    0.2469147110E+02    0.1149852991E+01    0    0
 -211    1   11   11    0    0   -0.6453507900E+01   -0.1036459255E+02   -0.3813018322E+01    0.1279183865E+02    0.1395683885E+00    0    0
 -211    1   11   11    0    0   -0.1795191526E+01   -0.3465163708E+01   -0.1128578186E+01    0.4064878941E+01    0.1395680010E+00    0    0
  211    1   11   11    0    0   -0.1006826997E+01   -0.1380476713E+01   -0.5447065830E+00    0.1798777699E+01    0.1395680159E+00    0    0
  111    1   11   11    0    0   -0.3074135065E+01   -0.4859634876E+01   -0.1829863906E+01    0.6035973549E+01    0.1349640042E+00    0    0
  -16    1    9    9    0    0   -0.5947248936E+01    0.9146810532E+01   -0.2241810322E+01    0.1113820553E+02    0.3549103858E-03    0    0
   24    2    9    9    0    0   -0.1189899921E+02    0.1695523071E+02   -0.4398800850E+01    0.2122011566E+02    0.1370331526E+01    0    0
  211    1   17   17    0    0   -0.1236509681E+01    0.1369382143E+01   -0.5773018599E+00    0.1938277721E+01    0.1395680159E+00    0    0
  310    1   17   17    0    0   -0.7394813538E+01    0.1049994564E+02   -0.2537503481E+01    0.1310033512E+02    0.4977201223E+00    0    0
  111    1   17   17    0    0   -0.3267676115E+01    0.5085901737E+01   -0.1283995152E+01    0.6181501389E+01    0.1349639744E+00    0    0
</event>
<event>
   21 9999    1    0.9119999695E+02    0.7565275169E-02    0.1185000000E+00
   11   -1    0    0    0    0    0.0000000000E+00    0.0000000000E+00    0.8000000000E+02    0.8000000000E+02    0.5109988851E-03    0    0
  -11   -1    0    0    0    0    0.0000000000E+00    0.0000000000E+00   -0.8000000000E+02    0.8000000000E+02    0.5109988851E-03    0    0
  -24    2    1    2    0    0   -0.6795108795E+01   -0.2361185265E+02    0.1323963165E+02    0.8093873596E+02    0.7597431946E+02    0    0
   24    2    1    2    0    0    0.6795120716E+01    0.2361185646E+02   -0.1329446793E+02    0.7900643158E+02    0.7390249634E+02    0    0
   22    1    1    2    0    0   -0.1181521930E-04   -0.4026675470E-05    0.5483636260E-01    0.5483636633E-01    0.0000000000E+00    0    0
   15    2    3    3    0    0    0.2052875519E+02   -0.4080175018E+02   -0.8475936651E+00    0.4571749115E+02    0.1777029991E+01    0    0
  -16    1    3    3    0    0   -0.2732386398E+02    0.1718989754E+02    0.1408722591E+02    0.3522124481E+02    0.0000000000E+00    0    0
   16    1    4    4    0    0   -0.1403236961E+02   -0.1871071243E+02   -0.2069148827E+02    0.3122716522E+02    0.0000000000E+00    0    0
  -15    2    4    4    0    0    0.2082748985E+02    0.4232257080E+02    0.7397019863E+01    0.4777926254E+02    0.1777029991E+01    0    0
   16    1    6    6    0    0    0.5849524021E+01   -0.1095352936E+02   -0.1286632866E+00    0.1241826534E+02    0.4678256228E-03    0    0
  -24    2    6    6    0    0    0.1468003941E+02   -0.2984982491E+02   -0.7189637423E+00    0.3330102158E+02    0.1387669086E+01    0    0
 -211    1   11   11    0    0    0.1220273018E+01   -0.2383446693E+01   -0.3890800104E-01    0.2681581259E+01    0.1395676881E+00    0    0
 -211    1   11   11    0    0    0.4762469769E+01   -0.8950265884E+01   -0.4962778650E-02    0.1013942242E+02    0.1395680308E+00    0    0
  211    1   11   11    0    0    0.6691037416E+00   -0.1535460472E+01    0.2186381631E-01    0.1680861592E+01    0.1395679861E+00    0    0
  111    1   11   11    0    0    0.2275878191E+01   -0.4624756336E+01   -0.1633362472E+00    0.5158768177E+01    0.1349639893E+00    0    0
  111    1   11   11    0    0    0.5752315044E+01   -0.1235589695E+02   -0.5336205959E+00    0.1364039135E+02    0.1349638402E+00    0    0
  -16    1    9    9    0    0    0.1702191830E+01    0.4143234730E+01    0.7372630239E+00    0.4539538383E+01    0.4402630148E-03    0    0
   24    2    9    9    0    0    0.1912611771E+02    0.3818099976E+02    0.6660048008E+01    0.4324160767E+02    0.1372221231E+01    0    0
  321    1   18   18    0    0    0.4621001244E+01    0.9304769516E+01    0.1554553151E+01    0.1051630783E+02    0.4936670661E+00    0    0
  211    1   18   18    0    0    0.6295271397E+01    0.1257693577E+02    0.2426249981E+01    0.1427290821E+02    0.1395680010E+00    0    0
 -321    1   18   18    0    0    0.8209845543E+01    0.1629929733E+02    0.2679244995E+01    0.1845239067E+02    0.4936670065E+00    0    0
</event>
<event>
   20 9999    1    0.9119999695E+02    0.7565275169E-02    0.1185000000E+00
   11   -1    0    0    0    0    0.0000000000E+00    0.0000000000E+00    0.8000000000E+02    0.8000000000E+02    0.5109988851E-03    0    0
  -11   -1    0    0    0    0    0.0000000000E+00    0.0000000000E+00   -0.8000000000E+02    0.8000000000E+02    0.5109988851E-03    0    0
  -24    2    1    2    0    0   -0.6382121086E+01    0.8674502373E+01   -0.5921123028E+01    0.7899049377E+02    0.7802857971E+02    0    0
   24    2    1    2    0    0    0.6381838799E+01   -0.8674807549E+01    0.5920114040E+01    0.8100841522E+02    0.8007081604E+02    0    0
   22    1    1    2    0    0    0.2823602990E-03    0.3051506646E-03    0.1009142841E-02    0.1091427286E-02    0.0000000000E+00    0    0
   15    2    3    3    0    0    0.6112034321E+01    0.5149468780E+00    0.3492491150E+02    0.3550393295E+02    0.1777029991E+01    0    0
  -16    1    3    3    0    0   -0.1249415588E+02    0.8159555435E+01   -0.4084603500E+02    0.4348655701E+02    0.0000000000E+00    0    0
   16    1    4    4    0    0    0.9851119995E+01    0.3407711411E+02    0.1243242645E+02    0.3758802414E+02    0.0000000000E+00    0    0
  -15    2    4    4    0    0   -0.3469281197E+01   -0.4275191879E+02   -0.6512312889E+01    0.4342039490E+02    0.1777029991E+01    0    0
   16    1    6    6    0    0    0.6806669235E+00   -0.7568573207E-01    0.3076515198E+01    0.3151822090E+01    0.4315837214E-04    0    0
  -24    2    6    6    0    0    0.5431608200E+01    0.5906528831E+00    0.3184977150E+02    0.3235351181E+02    0.1578134179E+01    0    0
 -211    1   11   11    0    0    0.7678608894E+00    0.1431564540E+00    0.3745069981E+01    0.3828202248E+01    0.1395679861E+00    0    0
 -211    1   11   11    0    0    0.6696351171E+00    0.3755325377E+00    0.5090253353E+01    0.5149717808E+01    0.1395680159E+00    0    0
 -211    1   11   11    0    0    0.1113596678E+01    0.1189869419E+00    0.8267185211E+01    0.8343864441E+01    0.1395679563E+00    0    0
  211    1   11   11    0    0    0.1113243580E+01    0.8552549034E-01    0.6252598286E+01    0.6353037834E+01    0.1395680010E+00    0    0
  211    1   11   11    0    0    0.1767271876E+01   -0.1325485557E+00    0.8494664192E+01    0.8678687096E+01    0.1395679861E+00    0    0
  -16    1    9    9    0    0   -0.3850414157E+00   -0.5978043079E+01   -0.4408582151E+00    0.6006630421E+01    0.1726334885E-03    0    0
  213    2    9    9    0    0   -0.3084376574E+01   -0.3677556229E+02   -0.6071711063E+01    0.3741547394E+02    0.1047257066E+01    0    0
  211    1   18   18    0    0   -0.2104930639E+01   -0.1905815697E+02   -0.3167179585E+01    0.1943436623E+02    0.1395679265E+00    0    0
  111    1   18   18    0    0   -0.9794460535E+00   -0.1771740532E+02   -0.2904531717E+01    0.1798110962E+02    0.1349637210E+00    0    0
</event>
<event>
   20 9999    1    0.9119999695E+02    0.7565275169E-02    0.1185000000E+00
   11   -1    0    0    0    0    0.0000000000E+00    0.0000000000E+00    0.8000000000E+02    0.8000000000E+02    0.5109988851E-03    0    0
  -11   -1    0    0    0    0    0.0000000000E+00    0.0000000000E+00   -0.8000000000E+02    0.8000000000E+02    0.5109988851E-03    0    0
  -24    2    1    2    0    0    0.4018250942E+01   -0.5456762791E+01    0.8134114265E+01    0.7914258575E+02    0.7843125916E+02    0    0
   24    2    1    2    0    0   -0.4018887520E+01    0.5457098484E+01   -0.7808277130E+01    0.8052675629E+02    0.7986023712E+02    0    0
   22    1    1    2    0    0    0.6362063577E-03   -0.3357274982E-03   -0.3280836642E+00    0.3280844390E+00    0.0000000000E+00    0    0
   22    1    1    2    0    0   -0.3973912754E-07    0.5049868435E-07    0.2411631867E-02    0.2411631867E-02    0.0000000000E+00    0    0
   22    1    1    2    0    0   -0.2915406805E-08   -0.3476453125E-08   -0.1655362576E-03    0.1655362576E-03    0.0000000000E+00    0    0
   15    2    3    3    0    0   -0.1462389374E+02    0.3037009239E+02   -0.9511998177E+01    0.3506902695E+02    0.1777029991E+01    0    0
  -16    1    3    3    0    0    0.1864214516E+02   -0.3582685471E+02    0.1764611244E+02    0.4407355881E+02    0.0000000000E+00    0    0
   16    1    4    4    0    0   -0.3541506958E+02   -0.1614220023E+01    0.1750994110E+02    0.3954024506E+02    0.0000000000E+00    0    0
  -15    2    4    4    0    0    0.3139618301E+02    0.7071318626E+01   -0.2531821823E+02    0.4098650742E+02    0.1777029991E+01    0    0
   16    1    8    8    0    0   -0.1382279158E+01    0.2519012690E+01   -0.1039708614E+01    0.3055669308E+01    0.6103515625E-04    0    0
  -24    2    8    8    0    0   -0.1324219036E+02    0.2785227394E+02   -0.8472663879E+01    0.3201473999E+02    0.1432709217E+01    0    0
 -321    1   13   13    0    0   -0.7548062325E+01    0.1615057373E+02   -0.5404949188E+01    0.1863522148E+02    0.4936670661E+00    0    0
  310    1   13   13    0    0   -0.5694126606E+01    0.1170169735E+02   -0.3067713976E+01    0.1337951374E+02    0.4977199435E+00    0    0
  -16    1   11   11    0    0    0.1578533173E+01    0.3898287416E+00   -0.1067062855E+01    0.1944828153E+01    0.1057159898E-03    0    0
   24    2   11   11    0    0    0.2981888580E+02    0.6681768417E+01   -0.2425215149E+02    0.3904329300E+02    0.1549168706E+01    0    0
  221    1   17   17    0    0    0.1168734169E+02    0.2309138298E+01   -0.9511239052E+01    0.1525421047E+02    0.5487998724E+00    0    0
  211    1   17   17    0    0    0.3534226656E+01    0.6192435622E+00   -0.2565451622E+01    0.4413076401E+01    0.1395678818E+00    0    0
  111    1   17   17    0    0    0.1459731865E+02    0.3753386497E+01   -0.1217546082E+02    0.1937600708E+02    0.1349641532E+00    0    0
</event>
<event>
   17 9999    1    0.9119999695E+02    0.7565275169E-02    0.1185000000E+00
   11   -1    0    0    0    0    0.0000000000E+00    0.0000000000E+00    0.8000000000E+02    0.8000000000E+02    0.5109988851E-03    0    0
  -11   -1    0    0    0    0    0.0000000000E+00    0.0000000000E+00   -0.8000000000E+02    0.8000000000E+02    0.5109988851E-03    0    0
  -24    2    1    2    0    0   -0.1843744469E+02   -0.1521755815E+01   -0.1129214048E+01    0.8159516144E+02    0.7946219635E+02    0    0
   24    2    1    2    0    0    0.1843697929E+02    0.1521693707E+01    0.1127416372E+01    0.7840297699E+02    0.7618082428E+02    0    0
   22    1    1    2    0    0    0.4655566008E-03    0.6218068302E-04    0.1797683421E-02    0.1858029980E-02    0.0000000000E+00    0    0
   15    2    3    3    0    0   -0.4448658371E+02    0.1321419048E+02    0.1338640690E+02    0.4833243561E+02    0.1777029991E+01    0    0
  -16    1    3    3    0    0    0.2604913712E+02   -0.1473594570E+02   -0.1451562023E+02    0.3326272583E+02    0.0000000000E+00    0    0
   16    1    4    4    0    0    0.9398366928E+01    0.1671245956E+02    0.3513973236E+02    0.4003044510E+02    0.0000000000E+00    0    0
  -15    2    4    4    0    0    0.9038611412E+01   -0.1519076633E+02   -0.3401231766E+02    0.3837253571E+02    0.1777029991E+01    0    0
   16    1    6    6    0    0   -0.1874425697E+02    0.5587579250E+01    0.5359580994E+01    0.2028036690E+02    0.4485149693E-03    0    0
  -24    2    6    6    0    0   -0.2574407387E+02    0.7627130508E+01    0.8027351379E+01    0.2805397034E+02    0.1287004948E+01    0    0
 -211    1   11   11    0    0   -0.2193973541E+01    0.4033310711E+00    0.7135906219E+00    0.2346249580E+01    0.1395680606E+00    0    0
  111    1   11   11    0    0   -0.7726880312E+00    0.2789930105E+00    0.2259862125E+00    0.8626523018E+00    0.1349641681E+00    0    0
   22    1   11   11    0    0   -0.2277741623E+02    0.6944807053E+01    0.7087775707E+01    0.2484507179E+02    0.2200653835E-03    0    0
  -16    1    9    9    0    0    0.5858406067E+01   -0.8527509689E+01   -0.2070661354E+02    0.2314742279E+02    0.1726334885E-03    0    0
  -11    1    9    9    0    0    0.6626158357E+00   -0.1234271169E+01   -0.2160894871E+01    0.2575257778E+01    0.5179004511E-03    0    0
   12    1    9    9    0    0    0.2517946005E+01   -0.5429584026E+01   -0.1114614773E+02    0.1265136528E+02    0.1726334885E-03    0    0
</event>
<event>
   20 9999    1    0.9119999695E+02    0.7565275169E-02    0.1185000000E+00
   11   -1    0    0    0    0    0.0000000000E+00    0.0000000000E+00    0.8000000000E+02    0.8000000000E+02    0.5109988851E-03    0    0
  -11   -1    0    0    0    0    0.0000000000E+00    0.0000000000E+00   -0.8000000000E+02    0.8000000000E+02    0.5109988851E-03    0    0
  -24    2    1    2    0    0   -0.2756647587E+01    0.1281850529E+02   -0.1404105568E+02    0.8348491669E+02    0.8124449158E+02    0    0
   24    2    1    2    0    0    0.2756647587E+01   -0.1281850529E+02    0.1404105568E+02    0.7651508331E+02    0.7406411743E+02    0    0
   15    2    3    3    0    0   -0.3576397705E+02   -0.1225890064E+02    0.4422344208E+01    0.3810587692E+02    0.1777029991E+01    0    0
  -16    1    3    3    0    0    0.3300733185E+02    0.2507740593E+02   -0.1846339989E+02    0.4537903976E+02    0.0000000000E+00    0    0
   16    1    4    4    0    0    0.1801909065E+02   -0.3593890381E+02    0.2423401642E+02    0.4694230270E+02    0.0000000000E+00    0    0
  -15    2    4    4    0    0   -0.1526244259E+02    0.2312039757E+02   -0.1019296074E+02    0.2957277870E+02    0.1777029991E+01    0    0
   16    1    5    5    0    0   -0.1270276928E+02   -0.3957535505E+01    0.1183582067E+01    0.1335751820E+02    0.6103515625E-03    0    0
  -24    2    5    5    0    0   -0.2306261444E+02   -0.8301847458E+01    0.3238935947E+01    0.2474985504E+02    0.1122383356E+01    0    0
 -211    1   10   10    0    0   -0.3769231796E+01   -0.1100294232E+01    0.4843177199E+00    0.3958762407E+01    0.1395683140E+00    0    0
  111    1   10   10    0    0   -0.6978495121E+01   -0.2980200529E+01    0.9856575131E+00    0.7653151512E+01    0.1349641681E+00    0    0
   22    1   10   10    0    0   -0.1231488991E+02   -0.4221353054E+01    0.1768961072E+01    0.1313794327E+02    0.1614838402E-03    0    0
  -16    1    8    8    0    0   -0.3109220415E-01    0.1708829217E-01    0.1403083652E-01    0.3815545514E-01    0.4884004593E-03    0    0
   24    2    8    8    0    0   -0.1523195076E+02    0.2310421944E+02   -0.1020739174E+02    0.2953578568E+02    0.1534456730E+01    0    0
  211    1   15   15    0    0   -0.3124166012E+01    0.4841509342E+01   -0.2485839367E+01    0.6276902199E+01    0.1395685673E+00    0    0
  211    1   15   15    0    0   -0.4294974208E+00    0.8077155948E+00   -0.3555200696E+00    0.9913356304E+00    0.1395680308E+00    0    0
 -211    1   15   15    0    0   -0.3463118792E+01    0.5653828621E+01   -0.2298753500E+01    0.7018740177E+01    0.1395679414E+00    0    0
  111    1   15   15    0    0   -0.3778900623E+01    0.5521971703E+01   -0.2404239655E+01    0.7111318111E+01    0.1349640638E+00    0    0
  111    1   15   15    0    0   -0.4436268330E+01    0.6279195786E+01   -0.2663039923E+01    0.8137492180E+01    0.1349639297E+00    0    0
</event>
<event>
   17 9999    1    0.9119999695E+02    0.7565275169E-02    0.1185000000E+00
   11   -1    0    0    0    0    0.0000000000E+00    0.0000000000E+00    0.8000000000E+02    0.8000000000E+02    0.5109988851E-03    0    0
  -11   -1    0    0    0    0    0.0000000000E+00    0.0000000000E+00   -0.8000000000E+02    0.8000000000E+02    0.5109988851E-03    0    0
  -24    2    1    2    0    0   -0.8528670311E+01   -0.2172940254E+01   -0.3791450500E+01    0.8013680267E+02    0.7956174469E+02    0    0
   24    2    1    2    0    0    0.8594110489E+01    0.2176453114E+01    0.3346947432E+01    0.7941329193E+02    0.7884588623E+02    0    0
   22    1    1    2    0    0   -0.6544071436E-01   -0.3513160860E-02    0.3947519660E+00    0.4001548886E+00    0.0000000000E+00    0    0
   22    1    1    2    0    0   -0.6718182899E-08    0.3350080817E-06    0.4975108802E-01    0.4975108802E-01    0.0000000000E+00    0    0
   15    2    3    3    0    0   -0.1412119007E+02    0.3600805664E+02    0.8494720459E+01    0.3963970566E+02    0.1777029991E+01    0    0
  -16    1    3    3    0    0    0.5592520237E+01   -0.3818099594E+02   -0.1228617096E+02    0.4049709320E+02    0.0000000000E+00    0    0
   16    1    4    4    0    0    0.2016831398E+02    0.2373782158E+02    0.2995796204E+02    0.4321717834E+02    0.0000000000E+00    0    0
  -15    2    4    4    0    0   -0.1157420349E+02   -0.2156136894E+02   -0.2661101532E+02    0.3619611359E+02    0.1777029991E+01    0    0
   16    1    7    7    0    0   -0.2797263622E+01    0.6643234253E+01    0.1876260281E+01    0.7448328495E+01    0.5854286719E-03    0    0
  -24    2    7    7    0    0   -0.1132448196E+02    0.2936623764E+02    0.6618794441E+01    0.3219293594E+02    0.1398871660E+01    0    0
 -211    1   12   12    0    0   -0.1499036789E+01    0.3430450916E+01    0.5986530781E+00    0.3793806791E+01    0.1395678669E+00    0    0
  130    1   12   12    0    0   -0.2951512814E+01    0.7773725033E+01    0.1591508746E+01    0.8480733871E+01    0.4977200031E+00    0    0
  111    1   12   12    0    0   -0.6873932362E+01    0.1816206169E+02    0.4428632736E+01    0.1991839409E+02    0.1349641085E+00    0    0
  -16    1   10   10    0    0   -0.7244902134E+01   -0.1246628857E+02   -0.1459784794E+02    0.2051814079E+02    0.0000000000E+00    0    0
  211    1   10   10    0    0   -0.4329757690E+01   -0.9095930099E+01   -0.1201421547E+02    0.1567940044E+02    0.1395679563E+00    0    0
</event>
<event>
   15 9999    1    0.9119999695E+02    0.7565275169E-02    0.1185000000E+00
   11   -1    0    0    0    0    0.0000000000E+00    0.0000000000E+00    0.8000000000E+02    0.8000000000E+02    0.5109988851E-03    0    0
  -11   -1    0    0    0    0    0.0000000000E+00    0.0000000000E+00   -0.8000000000E+02    0.8000000000E+02    0.5109988851E-03    0    0
  -24    2    1    2    0    0    0.1885125732E+02   -0.3013394594E+01    0.5985711575E+01    0.7841421509E+02    0.7581892395E+02    0    0
   24    2    1    2    0    0   -0.1885125732E+02    0.3013394594E+01   -0.5985711575E+01    0.8158578491E+02    0.7909463501E+02    0    0
   15    2    3    3    0    0    0.4684823227E+02    0.8966375351E+01    0.3884520054E+01    0.4788945770E+02    0.1777029991E+01    0    0
  -16    1    3    3    0    0   -0.2799697685E+02   -0.1197976971E+02    0.2101191521E+01    0.3052475357E+02    0.0000000000E+00    0    0
   16    1    4    4    0    0   -0.2110410500E+02    0.3938844681E+02   -0.5076922178E+00    0.4468881989E+02    0.0000000000E+00    0    0
  -15    2    4    4    0    0    0.2252848625E+01   -0.3637504959E+02   -0.5478019238E+01    0.3689696884E+02    0.1777029991E+01    0    0
   16    1    5    5    0    0    0.9840526581E+01    0.1454952717E+01    0.4101801813E+00    0.9955957413E+01    0.1726334885E-03    0    0
  -24    2    5    5    0    0    0.3700955200E+02    0.7511775017E+01    0.3474492788E+01    0.3793538666E+02    0.9421877861E+00    0    0
 -211    1   10   10    0    0    0.8192543030E+01    0.1666261911E+01    0.7123664021E+00    0.8391730309E+01    0.1395681053E+00    0    0
  111    1   10   10    0    0    0.1294418621E+02    0.2947106123E+01    0.1451250911E+01    0.1335521412E+02    0.1349638999E+00    0    0
   22    1   10   10    0    0    0.1587281990E+02    0.2898406744E+01    0.1310875177E+01    0.1618844032E+02    0.7119260408E-04    0    0
  -16    1    8    8    0    0    0.2357982397E+01   -0.3590527344E+02   -0.5468453884E+01    0.3639577866E+02    0.1622031559E-03    0    0
  211    1    8    8    0    0   -0.1050451100E+00   -0.4712103307E+00   -0.9781132452E-02    0.5026415586E+00    0.1395680457E+00    0    0
</event>
<event>
   24 9999    1    0.9119999695E+02    0.7565275169E-02    0.1185000000E+00
   11   -1    0    0    0    0    0.0000000000E+00    0.0000000000E+00    0.8000000000E+02    0.8000000000E+02    0.5109988851E-03    0    0
  -11   -1    0    0    0    0    0.0000000000E+00    0.0000000000E+00   -0.8000000000E+02    0.8000000000E+02    0.5109988851E-03    0    0
  -24    2    1    2    0    0    0.2660972404E+02   -0.1898675537E+02    0.4157759476E+02    0.6530879211E+02    0.3831406403E+02    0    0
   24    2    1    2    0    0   -0.2660971642E+02    0.1898675537E+02   -0.4119561005E+02    0.9430922699E+02    0.7828523254E+02    0    0
   22    1    1    2    0    0   -0.1509239951E-05    0.2740115633E-05   -0.3700610399E+00    0.3700610399E+00    0.0000000000E+00    0    0
   22    1    1    2    0    0    0.4046789854E-06   -0.3183957347E-06   -0.1142578665E-01    0.1142578665E-01    0.0000000000E+00    0    0
   22    1    1    2    0    0   -0.6962406133E-05   -0.1941362370E-05   -0.4973314353E-03    0.4973839386E-03    0.0000000000E+00    0    0
   15    2    3    3    0    0    0.1553090286E+02   -0.1467715549E+02    0.4743513107E+02    0.5205648422E+02    0.1777029991E+01    0    0
  -16    1    3    3    0    0    0.1107882118E+02   -0.4309600830E+01   -0.5857538223E+01    0.1325230885E+02    0.0000000000E+00    0    0
   16    1    4    4    0    0    0.2226316833E+02    0.9764317513E+01    0.6722789764E+01    0.2522273636E+02    0.0000000000E+00    0    0
  -15    2    4    4    0    0   -0.4887288284E+02    0.9222437859E+01   -0.4791839981E+02    0.6908648682E+02    0.1777029991E+01    0    0
   16    1    8    8    0    0    0.3212419987E+01   -0.2351102352E+01    0.9364753723E+01    0.1017575264E+02    0.2114319796E-03    0    0
  -24    2    8    8    0    0    0.1231909466E+02   -0.1232663059E+02    0.3807224655E+02    0.4188277817E+02    0.9825726151E+00    0    0
 -211    1   13   13    0    0    0.1462621808E+01   -0.1383273005E+01    0.4203020573E+01    0.4662356377E+01    0.1395683587E+00    0    0
  111    1   13   13    0    0    0.7800527096E+01   -0.8147001266E+01    0.2409474564E+02    0.2660445213E+02    0.1349645108E+00    0    0
   22    1   13   13    0    0    0.3055943489E+01   -0.2796354055E+01    0.9774472237E+01    0.1061596394E+02    0.1210828414E-03    0    0
  -16    1   11   11    0    0   -0.6980584145E+01    0.1267322659E+01   -0.6858301163E+01    0.9867671967E+01    0.2515965571E-04    0    0
   24    2   11   11    0    0   -0.4189422226E+02    0.7955478191E+01   -0.4106198120E+02    0.5922153473E+02    0.1639570236E+01    0    0
  211    1   18   18    0    0   -0.7897654533E+01    0.1670324564E+01   -0.7934372425E+01    0.1131974697E+02    0.1395680010E+00    0    0
  211    1   18   18    0    0   -0.5331337452E+01    0.1078924537E+01   -0.5222603798E+01    0.7542036057E+01    0.1395679861E+00    0    0
  211    1   18   18    0    0   -0.5594189644E+01    0.1379397392E+01   -0.5538160801E+01    0.7993021965E+01    0.1395680308E+00    0    0
 -211    1   18   18    0    0   -0.7919119835E+01    0.1372570395E+01   -0.7507361889E+01    0.1099892616E+02    0.1395679563E+00    0    0
 -211    1   18   18    0    0   -0.3402428150E+01    0.4532105327E+00   -0.3383518457E+01    0.4821783066E+01    0.1395679563E+00    0    0
  111    1   18   18    0    0   -0.1174949074E+02    0.2001050472E+01   -0.1147596550E+02    0.1654601860E+02    0.1349639446E+00    0    0
</event>
<event>
   19 9999    1    0.9119999695E+02    0.7565275169E-02    0.1185000000E+00
   11   -1    0    0    0    0    0.0000000000E+00    0.0000000000E+00    0.8000000000E+02    0.8000000000E+02    0.5109988851E-03    0    0
  -11   -1    0    0    0    0    0.0000000000E+00    0.0000000000E+00   -0.8000000000E+02    0.8000000000E+02    0.5109988851E-03    0    0
  -24    2    1    2    0    0    0.2376591444E+01   -0.2686865628E+00    0.1954201126E+02    0.8304482269E+02    0.8067733765E+02    0    0
   24    2    1    2    0    0   -0.2376577377E+01    0.2686371803E+00   -0.1890963554E+02    0.7632279968E+02    0.7390450287E+02    0    0
   22    1    1    2    0    0   -0.1403740407E-04    0.4936784535E-04   -0.6323751807E+00    0.6323751807E+00    0.0000000000E+00    0    0
   15    2    3    3    0    0    0.6755125046E+01   -0.1322415709E+01    0.5088537598E+02    0.5137956619E+02    0.1777029991E+01    0    0
  -16    1    3    3    0    0   -0.4378533840E+01    0.1053729177E+01   -0.3134336662E+02    0.3166525650E+02    0.0000000000E+00    0    0
   16    1    4    4    0    0    0.1451571846E+02    0.2950753403E+02   -0.2581933212E+02    0.4180955124E+02    0.0000000000E+00    0    0
  -15    2    4    4    0    0   -0.1689229584E+02   -0.2923889732E+02    0.6909696102E+01    0.3451325226E+02    0.1777029991E+01    0    0
   16    1    6    6    0    0    0.6096987128E+00    0.4022295401E-01    0.3729686022E+01    0.3779405832E+01    0.4673276562E-03    0    0
  -24    2    6    6    0    0    0.6145691872E+01   -0.1362690687E+01    0.4715769196E+02    0.4760218048E+02    0.1579032660E+01    0    0
  221    1   11   11    0    0    0.3718883753E+01   -0.5053584576E+00    0.2919028664E+02    0.2943568420E+02    0.5487999320E+00    0    0
 -211    1   11   11    0    0    0.1981914520E+01   -0.7388125658E+00    0.1607775497E+02    0.1621688843E+02    0.1395679265E+00    0    0
  111    1   11   11    0    0    0.4448938966E+00   -0.1185195968E+00    0.1889650583E+01    0.1949608207E+01    0.1349639595E+00    0    0
  -16    1    9    9    0    0   -0.2245664597E+01   -0.3554072618E+01    0.1048060536E+01    0.4332767487E+01    0.3712623729E-03    0    0
   24    2    9    9    0    0   -0.1464729691E+02   -0.2568597603E+02    0.5861907482E+01    0.3018184280E+02    0.1506328940E+01    0    0
  321    1   16   16    0    0   -0.4509124756E+01   -0.8229238510E+01    0.2116430998E+01    0.9632007599E+01    0.4936669469E+00    0    0
  211    1   16   16    0    0   -0.1849190235E+01   -0.3009525061E+01    0.8634425998E+00    0.3638922453E+01    0.1395678371E+00    0    0
 -321    1   16   16    0    0   -0.8288983345E+01   -0.1444721413E+02    0.2882034540E+01    0.1691091537E+02    0.4936670661E+00    0    0
</event>
<event>
   16 9999    1    0.9119999695E+02    0.7565275169E-02    0.1185000000E+00
   11   -1    0    0    0    0    0.0000000000E+00    0.0000000000E+00    0.8000000000E+02    0.8000000000E+02    0.5109988851E-03    0    0
  -11   -1    0    0    0    0    0.0000000000E+00    0.0000000000E+00   -0.8000000000E+02    0.8000000000E+02    0.5109988851E-03    0    0
  -24    2    1    2    0    0    0.1572936344E+02   -0.1233018494E+02    0.3029840708E+01    0.8232960510E+02    0.7980938721E+02    0    0
   24    2    1    2    0    0   -0.1158490562E+02    0.1007642746E+02    0.5322659492E+01    0.6806227875E+02    0.6609386444E+02    0    0
   22    1    1    2    0    0   -0.4146378994E+01    0.2263108015E+01   -0.8355283737E+01    0.9598171234E+01    0.0000000000E+00    0    0
   22    1    1    2    0    0    0.1921936520E-02   -0.9350555949E-02    0.2783573233E-02    0.9943591431E-02    0.0000000000E+00    0    0
   15    2    3    3    0    0    0.4142440033E+02    0.3869915247E+01    0.2141184235E+02    0.4682501602E+02    0.1777029991E+01    0    0
  -16    1    3    3    0    0   -0.2569503593E+02   -0.1620009995E+02   -0.1838200188E+02    0.3550459290E+02    0.0000000000E+00    0    0
   16    1    4    4    0    0    0.2261769104E+02    0.1770479202E+02    0.1394658279E+02    0.3193002892E+02    0.0000000000E+00    0    0
  -15    2    4    4    0    0   -0.3420259476E+02   -0.7628364563E+01   -0.8623923302E+01    0.3613224792E+02    0.1777029991E+01    0    0
   16    1    7    7    0    0    0.1860202217E+02    0.9578712583E+00    0.9117547035E+01    0.2073842812E+02    0.2114319796E-03    0    0
 -211    1    7    7    0    0    0.2282401085E+02    0.2912196636E+01    0.1229513836E+02    0.2608843231E+02    0.1395681202E+00    0    0
  -16    1   10   10    0    0   -0.1570137978E+02   -0.3496281147E+01   -0.3583599806E+01    0.1648027611E+02    0.1220703125E-03    0    0
   24    2   10   10    0    0   -0.1850256348E+02   -0.4132383347E+01   -0.5040662766E+01    0.1965339470E+02    0.1194254041E+01    0    0
  321    1   14   14    0    0   -0.1199887562E+02   -0.2878717899E+01   -0.3069734812E+01    0.1272505379E+02    0.4936670363E+00    0    0
  130    1   14   14    0    0   -0.6503687859E+01   -0.1253665686E+01   -0.1970927954E+01    0.6928341866E+01    0.4977201521E+00    0    0
</event>
<event>
   17 9999    1    0.9119999695E+02    0.7565275169E-02    0.1185000000E+00
   11   -1    0    0    0    0    0.0000000000E+00    0.0000000000E+00    0.8000000000E+02    0.8000000000E+02    0.5109988851E-03    0    0
  -11   -1    0    0    0    0    0.0000000000E+00    0.0000000000E+00   -0.8000000000E+02    0.8000000000E+02    0.5109988851E-03    0    0
  -24    2    1    2    0    0    0.2097717667E+02   -0.2610544014E+02    0.2241910362E+02    0.7418857574E+02    0.6228798294E+02    0    0
   24    2    1    2    0    0   -0.2097717667E+02    0.2610544014E+02   -0.2241910362E+02    0.8581142426E+02    0.7575914764E+02    0    0
   15    2    3    3    0    0    0.4026906013E+01   -0.3984392548E+02   -0.3581681013E+01    0.4024599838E+02    0.1777029991E+01    0    0
  -16    1    3    3    0    0    0.1695027161E+02    0.1373848438E+02    0.2600078583E+02    0.3394257736E+02    0.0000000000E+00    0    0
   16    1    4    4    0    0   -0.2766066170E+02    0.4036824799E+02    0.9797125816E+01    0.4990682602E+02    0.0000000000E+00    0    0
  -15    2    4    4    0    0    0.6683484554E+01   -0.1426280880E+02   -0.3221623230E+02    0.3590459442E+02    0.1777029991E+01    0    0
   16    1    5    5    0    0   -0.5902302638E-01   -0.9197667837E+00    0.5965825543E-01    0.9235874414E+00    0.8631674427E-04    0    0
  -24    2    5    5    0    0    0.4086087704E+01   -0.3892572403E+02   -0.3641480207E+01    0.3932399750E+02    0.1099148989E+01    0    0
 -211    1   10   10    0    0    0.1557317376E+00   -0.2464046240E+01   -0.2715418637E+00    0.2487768173E+01    0.1395682991E+00    0    0
  111    1   10   10    0    0    0.1678893209E+01   -0.1700598145E+02   -0.1210518003E+01    0.1713200760E+02    0.1349640638E+00    0    0
   22    1   10   10    0    0    0.2251461506E+01   -0.1945568657E+02   -0.2159419298E+01    0.1970421028E+02    0.1220703125E-03    0    0
  -16    1    8    8    0    0    0.6509174347E+01   -0.1345504665E+02   -0.3026595306E+02    0.3375552750E+02    0.0000000000E+00    0    0
  213    2    8    8    0    0    0.1745732725E+00   -0.8083232641E+00   -0.1951545715E+01    0.2150483370E+01    0.3635731041E+00    0    0
  211    1   15   15    0    0    0.1043000352E-01   -0.3712383509E+00   -0.1108773708E+01    0.1177618384E+01    0.1395681500E+00    0    0
  111    1   15   15    0    0    0.1641434282E+00   -0.4370852411E+00   -0.8427728415E+00    0.9728658795E+00    0.1349640042E+00    0    0
</event>
<event>
   16 9999    1    0.9119999695E+02    0.7565275169E-02    0.1185000000E+00
   11   -1    0    0    0    0    0.0000000000E+00    0.0000000000E+00    0.8000000000E+02    0.8000000000E+02    0.5109988851E-03    0    0
  -11   -1    0    0    0    0    0.0000000000E+00    0.0000000000E+00   -0.8000000000E+02    0.8000000000E+02    0.5109988851E-03    0    0
  -24    2    1    2    0    0   -0.5396852493E+01   -0.8887864113E+01   -0.4539722919E+01    0.8053501892E+02    0.7973179626E+02    0    0
   24    2    1    2    0    0    0.5396852493E+01    0.8887864113E+01    0.4539722919E+01    0.7946498108E+02    0.7865084076E+02    0    0
   15    2    3    3    0    0    0.5498330593E+01   -0.4025207520E+02    0.1337475204E+02    0.4280774307E+02    0.1777029991E+01    0    0
  -16    1    3    3    0    0   -0.1089518356E+02    0.3136421013E+02   -0.1791447449E+02    0.3772727203E+02    0.0000000000E+00    0    0
   16    1    4    4    0    0   -0.2200127029E+02    0.1670773888E+02    0.3030665779E+02    0.4100851059E+02    0.0000000000E+00    0    0
  -15    2    4    4    0    0    0.2739812279E+02   -0.7819874287E+01   -0.2576693535E+02    0.3845647430E+02    0.1777029991E+01    0    0
   16    1    5    5    0    0    0.5484811306E+01   -0.3997710800E+02    0.1332817268E+02    0.4249579239E+02    0.1977765060E-03    0    0
 -211    1    5    5    0    0    0.1373592019E-01   -0.2765544355E+00    0.4710601270E-01    0.3136386871E+00    0.1395681053E+00    0    0
  -16    1    8    8    0    0    0.4898139477E+01   -0.1258824706E+01   -0.4088474751E+01    0.6503232956E+01    0.2990099892E-03    0    0
   24    2    8    8    0    0    0.2250106049E+02   -0.6561357498E+01   -0.2167947388E+02    0.3195475388E+02    0.1325714469E+01    0    0
  211    1   12   12    0    0    0.4241383553E+01   -0.1288967967E+01   -0.3723682165E+01    0.5791032791E+01    0.1395680457E+00    0    0
  130    1   12   12    0    0    0.1013372135E+02   -0.3012756109E+01   -0.9652994156E+01    0.1432470131E+02    0.4977200627E+00    0    0
  111    1   12   12    0    0    0.7557797909E+01   -0.2099287271E+01   -0.7812533379E+01    0.1107164097E+02    0.1349641681E+00    0    0
   22    1   12   12    0    0    0.5681892633E+00   -0.1603563279E+00   -0.4902947843E+00    0.7674257159E+00    0.0000000000E+00    0    0
</event>
<event>
   16 9999    1    0.9119999695E+02    0.7565275169E-02    0.1185000000E+00
   11   -1    0    0    0    0    0.0000000000E+00    0.0000000000E+00    0.8000000000E+02    0.8000000000E+02    0.5109988851E-03    0    0
  -11   -1    0    0    0    0    0.0000000000E+00    0.0000000000E+00   -0.8000000000E+02    0.8000000000E+02    0.5109988851E-03    0    0
  -24    2    1    2    0    0    0.9263105392E+00   -0.1144646072E+02    0.5133655071E+01    0.7954993439E+02    0.7854907990E+02    0    0
   24    2    1    2    0    0   -0.9262841940E+00    0.1144651222E+02   -0.6011191845E+01    0.7956270599E+02    0.7849974060E+02    0    0
   22    1    1    2    0    0   -0.2630701056E-04   -0.5192781100E-04    0.8824475408E+00    0.8824475408E+00    0.0000000000E+00    0    0
   22    1    1    2    0    0   -0.3856007069E-07    0.2995700132E-08   -0.4910869058E-02    0.4910869058E-02    0.0000000000E+00    0    0
   15    2    3    3    0    0    0.1114217877E+01    0.2224049568E+01    0.4102710724E+02    0.4114084625E+02    0.1777029991E+01    0    0
  -16    1    3    3    0    0   -0.1879072636E+00   -0.1367051029E+02   -0.3589345169E+02    0.3840908813E+02    0.0000000000E+00    0    0
   16    1    4    4    0    0    0.2754163370E-01   -0.2634028625E+02   -0.2579090881E+02    0.3686437988E+02    0.0000000000E+00    0    0
  -15    2    4    4    0    0   -0.9538258314E+00    0.3778680038E+02    0.1977971840E+02    0.4269832611E+02    0.1777029991E+01    0    0
   16    1    7    7    0    0    0.1122123282E-01   -0.1522340775E+00    0.1892505407E+01    0.1898651481E+01    0.1495049946E-03    0    0
  -24    2    7    7    0    0    0.1103040457E+01    0.2376371145E+01    0.3913621521E+02    0.3924381256E+02    0.1252858162E+01    0    0
 -321    1   12   12    0    0    0.6787221432E+00    0.1899109483E+01    0.3001782417E+02    0.3008954620E+02    0.4936670661E+00    0    0
  310    1   12   12    0    0    0.4243181646E+00    0.4772613943E+00    0.9118387222E+01    0.9154263496E+01    0.4977200031E+00    0    0
  -16    1   10   10    0    0    0.3209071159E+00    0.8407588005E+01    0.4978910446E+01    0.9776505470E+01    0.1726334885E-03    0    0
  211    1   10   10    0    0   -0.1274770617E+01    0.2938069916E+02    0.1480158710E+02    0.3292350388E+02    0.1395676434E+00    0    0
</event>
<event>
   16 9999    1    0.9119999695E+02    0.7565275169E-02    0.1185000000E+00
   11   -1    0    0    0    0    0.0000000000E+00    0.0000000000E+00    0.8000000000E+02    0.8000000000E+02    0.5109988851E-03    0    0
  -11   -1    0    0    0    0    0.0000000000E+00    0.0000000000E+00   -0.8000000000E+02    0.8000000000E+02    0.5109988851E-03    0    0
  -24    2    1    2    0    0    0.2377124405E+02    0.1698000908E+02    0.6019370079E+01    0.7973352051E+02    0.7394463348E+02    0    0
   24    2    1    2    0    0   -0.2377134705E+02   -0.1697945023E+02   -0.7196711540E+01    0.7908913422E+02    0.7314315033E+02    0    0
   22    1    1    2    0    0    0.1023506120E-03   -0.5579012795E-03    0.1177341223E+01    0.1177341342E+01    0.0000000000E+00    0    0
   15    2    3    3    0    0   -0.5263454437E+01   -0.1124622250E+02    0.3010818672E+02    0.3261659622E+02    0.1777029991E+01    0    0
  -16    1    3    3    0    0    0.2903469849E+02    0.2822623062E+02   -0.2408881760E+02    0.4711692810E+02    0.0000000000E+00    0    0
   16    1    4    4    0    0    0.2235836983E+01    0.1647088814E+02   -0.2745191765E+02    0.3209200668E+02    0.0000000000E+00    0    0
  -15    2    4    4    0    0   -0.2600718307E+02   -0.3345034027E+02    0.2025520706E+02    0.4699712753E+02    0.1777029991E+01    0    0
   16    1    6    6    0    0   -0.3881740093E+01   -0.7165292263E+01    0.2141929817E+02    0.2291714859E+02    0.2441406250E-03    0    0
 -211    1    6    6    0    0   -0.1381921649E+01   -0.4081373215E+01    0.8690074921E+01    0.9700732231E+01    0.1395681798E+00    0    0
  -16    1    9    9    0    0   -0.3055675268E+01   -0.4061813354E+01    0.2334217072E+01    0.5593214512E+01    0.3979005269E-03    0    0
   24    2    9    9    0    0   -0.2295253372E+02   -0.2938984489E+02    0.1792178726E+02    0.4140576553E+02    0.1632548809E+01    0    0
  321    1   13   13    0    0   -0.1427474594E+02   -0.1799586678E+02    0.1077560329E+02    0.2537669945E+02    0.4936670661E+00    0    0
  111    1   13   13    0    0   -0.4714933932E+00   -0.6232231259E+00    0.3008499444E+00    0.8481975794E+00    0.1349641532E+00    0    0
  310    1   13   13    0    0   -0.8206294060E+01   -0.1077075386E+02    0.6845334053E+01    0.1518086720E+02    0.4977200627E+00    0    0
</event>
<event>
   24 9999    1    0.9119999695E+02    0.7565275169E-02    0.1185000000E+00
   11   -1    0    0    0    0    0.0000000000E+00    0.0000000000E+00    0.8000000000E+02    0.8000000000E+02    0.5109988851E-03    0    0
  -11   -1    0    0    0    0    0.0000000000E+00    0.0000000000E+00   -0.8000000000E+02    0.8000000000E+02    0.5109988851E-03    0    0
  -24    2    1    2    0    0    0.2387458992E+02    0.2491977501E+02    0.6692932129E+01    0.6400459290E+02    0.5348646164E+02    0    0
   24    2    1    2    0    0   -0.2387458992E+02   -0.2491977501E+02   -0.6692932129E+01    0.9599540710E+02    0.8932710266E+02    0    0
   15    2    3    3    0    0    0.2222135544E+02    0.3651530457E+02    0.1917924118E+02    0.4688451004E+02    0.1777029991E+01    0    0
  -16    1    3    3    0    0    0.1653234363E+01   -0.1159552765E+02   -0.1248630905E+02    0.1712008667E+02    0.0000000000E+00    0    0
   16    1    4    4    0    0    0.1258541679E+02    0.2347777748E+02    0.1622170258E+02    0.3118881798E+02    0.0000000000E+00    0    0
  -15    2    4    4    0    0   -0.3646000671E+02   -0.4839755249E+02   -0.2291463470E+02    0.6480658722E+02    0.1777029991E+01    0    0
   16    1    5    5    0    0    0.1493461251E+01    0.2459775686E+01    0.1250959396E+01    0.3137805223E+01    0.1525878906E-04    0    0
  -24    2    5    5    0    0    0.2072877121E+02    0.3405696869E+02    0.1792903900E+02    0.4374855042E+02    0.1710682273E+01    0    0
 -211    1   10   10    0    0    0.4538252831E+01    0.7792270660E+01    0.3744735241E+01    0.9765129089E+01    0.1395680159E+00    0    0
 -211    1   10   10    0    0    0.6993012905E+01    0.1173826599E+02    0.6207844734E+01    0.1500819588E+02    0.1395680904E+00    0    0
  211    1   10   10    0    0    0.4064589024E+01    0.6011953354E+01    0.3570066929E+01    0.8088839531E+01    0.1395680457E+00    0    0
  111    1   10   10    0    0    0.1493960381E+01    0.2340131998E+01    0.1264110327E+01    0.3053575754E+01    0.1349640042E+00    0    0
  111    1   10   10    0    0    0.1592167020E+01    0.2871364117E+01    0.1381931067E+01    0.3564782858E+01    0.1349640191E+00    0    0
  111    1   10   10    0    0    0.2046788454E+01    0.3302981615E+01    0.1760349870E+01    0.4268029690E+01    0.1349640191E+00    0    0
  -16    1    8    8    0    0   -0.4613150597E+01   -0.6419865608E+01   -0.2743833542E+01    0.8368062019E+01    0.6103515625E-04    0    0
   24    2    8    8    0    0   -0.3184828949E+02   -0.4197958755E+02   -0.2017170143E+02    0.5644107056E+02    0.1448274612E+01    0    0
  211    1   18   18    0    0   -0.5921067238E+01   -0.7569617748E+01   -0.3947356701E+01    0.1039034462E+02    0.1395678818E+00    0    0
  211    1   18   18    0    0   -0.3536493778E+01   -0.4415904522E+01   -0.2242511511E+01    0.6087309361E+01    0.1395679712E+00    0    0
 -211    1   18   18    0    0   -0.1004001331E+02   -0.1343095684E+02   -0.6368018150E+01    0.1793777084E+02    0.1395679563E+00    0    0
  111    1   18   18    0    0   -0.4970074177E+01   -0.6478311062E+01   -0.2930706263E+01    0.8676255226E+01    0.1349639744E+00    0    0
  111    1   18   18    0    0   -0.4002795219E+01   -0.5598222733E+01   -0.2564713001E+01    0.7345640659E+01    0.1349639446E+00    0    0
  111    1   18   18    0    0   -0.3377845049E+01   -0.4486575603E+01   -0.2118395329E+01    0.6003749847E+01    0.1349639744E+00    0    0
</event>
<event>
   21 9999    1    0.9119999695E+02    0.7565275169E-02    0.1185000000E+00
   11   -1    0    0    0    0    0.0000000000E+00    0.0000000000E+00    0.8000000000E+02    0.8000000000E+02    0.5109988851E-03    0    0
  -11   -1    0    0    0    0    0.0000000000E+00    0.0000000000E+00   -0.8000000000E+02    0.8000000000E+02    0.5109988851E-03    0    0
  -24    2    1    2    0    0   -0.7922221661E+01   -0.1234304237E+02   -0.1018610764E+02    0.7833616638E+02    0.7627375793E+02    0    0
   24    2    1    2    0    0    0.7914012909E+01    0.1234210300E+02    0.1024983788E+02    0.8159957123E+02    0.7961451721E+02    0    0
   22    1    1    2    0    0    0.8209136315E-02    0.9390254854E-03   -0.6372971088E-01    0.6426312029E-01    0.0000000000E+00    0    0
   15    2    3    3    0    0   -0.2334686279E+02   -0.3799727678E+01    0.2774751854E+02    0.3650474548E+02    0.1777029991E+01    0    0
  -16    1    3    3    0    0    0.1542464066E+02   -0.8543313980E+01   -0.3793362808E+02    0.4183142090E+02    0.0000000000E+00    0    0
   16    1    4    4    0    0   -0.3213712692E+02    0.2986663580E+01   -0.1244371510E+02    0.3459134293E+02    0.0000000000E+00    0    0
  -15    2    4    4    0    0    0.4005113983E+02    0.9355439186E+01    0.2269355202E+02    0.4700822449E+02    0.1777029991E+01    0    0
   16    1    6    6    0    0   -0.2595399618E+01   -0.4016352892E+00    0.3792149782E+01    0.4612787724E+01    0.0000000000E+00    0    0
*****    2    6    6    0    0   -0.2075238228E+02   -0.3398241997E+01    0.2395646095E+02    0.3189339638E+02    0.1033096433E+01    0    0
  111    1   11   11    0    0   -0.1318042183E+02   -0.2274573326E+01    0.1509914684E+02    0.2017175293E+02    0.1349638999E+00    0    0
  111    1   11   11    0    0   -0.1417430401E+01   -0.3098218143E+00    0.1447896361E+01    0.2054195166E+01    0.1349640042E+00    0    0
 -211    1   11   11    0    0   -0.6154530048E+01   -0.8138467669E+00    0.7409418106E+01    0.9667448044E+01    0.1395680308E+00    0    0
  -16    1    9    9    0    0    0.7888454199E+00    0.3013503850E+00    0.5313010812E+00    0.9976823330E+00    0.7157006621E-04    0    0
   24    2    9    9    0    0    0.3926387024E+02    0.9054457664E+01    0.2216314507E+02    0.4601239395E+02    0.1516762018E+01    0    0
  211    1   16   16    0    0    0.9443581581E+01    0.2157559872E+01    0.5248644352E+01    0.1101835060E+02    0.1395679861E+00    0    0
  211    1   16   16    0    0    0.3938102484E+01    0.9030781388E+00    0.2273199320E+01    0.4638007641E+01    0.1395680010E+00    0    0
  211    1   16   16    0    0    0.6217666626E+01    0.1484402061E+01    0.3922314644E+01    0.7501123905E+01    0.1395678520E+00    0    0
 -211    1   16   16    0    0    0.7803148270E+01    0.1640361547E+01    0.3958853245E+01    0.8903477669E+01    0.1395679116E+00    0    0
 -211    1   16   16    0    0    0.1186137199E+02    0.2869055748E+01    0.6760132790E+01    0.1395143414E+02    0.1395679712E+00    0    0
</event>
<event>
   18 9999    1    0.9119999695E+02    0.7565275169E-02    0.1185000000E+00
   11   -1    0    0    0    0    0.0000000000E+00    0.0000000000E+00    0.8000000000E+02    0.8000000000E+02    0.5109988851E-03    0    0
  -11   -1    0    0    0    0    0.0000000000E+00    0.0000000000E+00   -0.8000000000E+02    0.8000000000E+02    0.5109988851E-03    0    0
  -24    2    1    2    0    0    0.1253139305E+02    0.6320695877E+01    0.1128305817E+02    0.8451934052E+02    0.8257859802E+02    0    0
   24    2    1    2    0    0   -0.1253139305E+02   -0.6320695877E+01   -0.1128305817E+02    0.7548065948E+02    0.7330098724E+02    0    0
   15    2    3    3    0    0    0.2265671539E+02    0.3502442169E+02    0.2753623772E+02    0.5001438904E+02    0.1777029991E+01    0    0
  -16    1    3    3    0    0   -0.1012532234E+02   -0.2870372581E+02   -0.1625317955E+02    0.3450495529E+02    0.0000000000E+00    0    0
   16    1    4    4    0    0    0.2200232506E+02   -0.1668781090E+02    0.1443150425E+02    0.3115852547E+02    0.0000000000E+00    0    0
  -15    2    4    4    0    0   -0.3453371811E+02    0.1036711502E+02   -0.2571456337E+02    0.4432213211E+02    0.1777029991E+01    0    0
   16    1    5    5    0    0    0.1743558288E+01    0.3109452248E+01    0.2260788202E+01    0.4221356869E+01    0.5709316247E-04    0    0
  -24    2    5    5    0    0    0.2091404724E+02    0.3191634560E+02    0.2527653122E+02    0.4579499817E+02    0.1492730379E+01    0    0
 -211    1   10   10    0    0    0.3197644949E+01    0.4883712292E+01    0.3954788446E+01    0.7052333832E+01    0.1395679563E+00    0    0
 -211    1   10   10    0    0    0.2251320362E+01    0.3354834795E+01    0.2543605089E+01    0.4776271343E+01    0.1395679563E+00    0    0
 -211    1   10   10    0    0    0.8585016251E+01    0.1304264641E+02    0.1075805378E+02    0.1896228790E+02    0.1395678520E+00    0    0
  211    1   10   10    0    0    0.2086441040E+01    0.3305506468E+01    0.2337490082E+01    0.4556637764E+01    0.1395679265E+00    0    0
  211    1   10   10    0    0    0.7890416980E+00    0.1293902040E+01    0.9555923343E+00    0.1797054648E+01    0.1395679414E+00    0    0
  111    1   10   10    0    0    0.4004582405E+01    0.6035743237E+01    0.4727002621E+01    0.8650412560E+01    0.1349639744E+00    0    0
  -16    1    8    8    0    0   -0.2837099266E+02    0.8342962265E+01   -0.2046714401E+02    0.3596417999E+02    0.3662109375E-03    0    0
  321    1    8    8    0    0   -0.6164087772E+01    0.2024561167E+01   -0.5248432636E+01    0.8359699249E+01    0.4936669767E+00    0    0
</event>
<event>
   13 9999    1    0.9119999695E+02    0.7565275169E-02    0.1185000000E+00
   11   -1    0    0    0    0    0.0000000000E+00    0.0000000000E+00    0.8000000000E+02    0.8000000000E+02    0.5109988851E-03    0    0
  -11   -1    0    0    0    0    0.0000000000E+00    0.0000000000E+00   -0.8000000000E+02    0.8000000000E+02    0.5109988851E-03    0    0
  -24    2    1    2    0    0   -0.4588334262E+00   -0.1271304893E+02   -0.1004445839E+02    0.8023364258E+02    0.7857934570E+02    0    0
   24    2    1    2    0    0   -0.7327305675E+00    0.1196710873E+02    0.1178698730E+02    0.7752746582E+02    0.7568240356E+02    0    0
   22    1    1    2    0    0    0.1191563964E+01    0.7459406853E+00   -0.1742528915E+01    0.2238896847E+01    0.0000000000E+00    0    0
   15    2    3    3    0    0   -0.5241070271E+01    0.3301404190E+02   -0.1793602467E+01    0.3352268600E+02    0.1777029991E+01    0    0
  -16    1    3    3    0    0    0.4782236576E+01   -0.4572708893E+02   -0.8250856400E+01    0.4671095276E+02    0.0000000000E+00    0    0
   16    1    4    4    0    0   -0.7499894142E+01    0.2940152168E+02    0.3587097549E+02    0.4698323822E+02    0.0000000000E+00    0    0
  -15    2    4    4    0    0    0.6767163277E+01   -0.1743441391E+02   -0.2408398819E+02    0.3054422379E+02    0.1777029991E+01    0    0
   16    1    6    6    0    0   -0.2737118483E+01    0.1733225822E+02   -0.1824192762E+01    0.1764161873E+02    0.2441406250E-03    0    0
 -211    1    6    6    0    0   -0.2504158258E+01    0.1568308353E+02    0.3051966429E-01    0.1588239002E+02    0.1395681798E+00    0    0
  -16    1    9    9    0    0    0.5868118763E+01   -0.1353284359E+02   -0.1875395584E+02    0.2385966301E+02    0.2179391013E-03    0    0
  321    1    9    9    0    0    0.8993113637E+00   -0.3902257204E+01   -0.5330980301E+01    0.6685763359E+01    0.4936671257E+00    0    0
</event>
<event>
   17 9999    1    0.9119999695E+02    0.7565275169E-02    0.1185000000E+00
   11   -1    0    0    0    0    0.0000000000E+00    0.0000000000E+00    0.8000000000E+02    0.8000000000E+02    0.5109988851E-03    0    0
  -11   -1    0    0    0    0    0.0000000000E+00    0.0000000000E+00   -0.8000000000E+02    0.8000000000E+02    0.5109988851E-03    0    0
  -24    2    1    2    0    0   -0.2073626709E+02    0.1804049873E+02    0.1847961044E+02    0.1051396027E+03    0.9978671265E+02    0    0
   24    2    1    2    0    0    0.2067112350E+02   -0.1797817230E+02   -0.1833573532E+02    0.5469009781E+02    0.4363825989E+02    0    0
   22    1    1    2    0    0    0.6514452398E-01   -0.6232586503E-01   -0.1441498697E+00    0.1700220853E+00    0.0000000000E+00    0    0
   22    1    1    2    0    0    0.1031184311E-06    0.4889852079E-07    0.2749315463E-03    0.2749315754E-03    0.0000000000E+00    0    0
   15    2    3    3    0    0   -0.4581140137E+02   -0.2511051178E+02    0.1782458305E+02    0.5522767258E+02    0.1777029991E+01    0    0
  -16    1    3    3    0    0    0.2507513237E+02    0.4315100861E+02    0.6550275683E+00    0.4991193390E+02    0.0000000000E+00    0    0
   16    1    4    4    0    0   -0.1041587353E+02    0.4273315907E+01   -0.1096472263E+02    0.1571549511E+02    0.0000000000E+00    0    0
  -15    2    4    4    0    0    0.3108699608E+02   -0.2225148964E+02   -0.7371013165E+01    0.3897460556E+02    0.1777029991E+01    0    0
   16    1    7    7    0    0   -0.5766652107E+01   -0.3127559662E+01    0.2421824217E+01    0.6992934704E+01    0.5709315883E-03    0    0
  -24    2    7    7    0    0   -0.4004654694E+02   -0.2198393822E+02    0.1540345860E+02    0.4823690796E+02    0.1585275531E+01    0    0
  111    1   12   12    0    0   -0.5048621178E+01   -0.2334629297E+01    0.1792887926E+01    0.5845659256E+01    0.1349640191E+00    0    0
  111    1   12   12    0    0   -0.2347980690E+02   -0.1309378815E+02    0.9197193146E+01    0.2841399574E+02    0.1349644661E+00    0    0
 -321    1   12   12    0    0   -0.1151811600E+02   -0.6555518627E+01    0.4413376808E+01    0.1397724628E+02    0.4936670065E+00    0    0
  -16    1   10   10    0    0    0.3578773975E+01   -0.3246669531E+01   -0.1013324022E+01    0.4937136173E+01    0.2669197856E-03    0    0
  321    1   10   10    0    0    0.2750944710E+02   -0.1900569534E+02   -0.6357979298E+01    0.3403900528E+02    0.4936670661E+00    0    0
</event>
<event>
   21 9999    1    0.9119999695E+02    0.7565275169E-02    0.1185000000E+00
   11   -1    0    0    0    0    0.0000000000E+00    0.0000000000E+00    0.8000000000E+02    0.8000000000E+02    0.5109988851E-03    0    0
  -11   -1    0    0    0    0    0.0000000000E+00    0.0000000000E+00   -0.8000000000E+02    0.8000000000E+02    0.5109988851E-03    0    0
  -24    2    1    2    0    0    0.8134402275E+01    0.4466352463E+01   -0.1736471415E+01    0.7876344299E+02    0.7819557190E+02    0    0
   24    2    1    2    0    0   -0.8134402275E+01   -0.4466352463E+01    0.1728974700E+01    0.8122905731E+02    0.8067871094E+02    0    0
   22    1    1    2    0    0   -0.1783629600E-07   -0.3844235508E-07    0.7496719249E-02    0.7496719249E-02    0.0000000000E+00    0    0
   15    2    3    3    0    0    0.2832790375E+02    0.4990248680E+01   -0.3156278610E+02    0.4274037933E+02    0.1777029991E+01    0    0
  -16    1    3    3    0    0   -0.2019350243E+02   -0.5238960385E+00    0.2982631493E+02    0.3602306366E+02    0.0000000000E+00    0    0
   16    1    4    4    0    0    0.6755705357E+01   -0.1393236065E+02    0.3790211868E+02    0.4094289780E+02    0.0000000000E+00    0    0
  -15    2    4    4    0    0   -0.1489010811E+02    0.9466008186E+01   -0.3617314529E+02    0.4028616333E+02    0.1777029991E+01    0    0
   16    1    6    6    0    0    0.3897691488E+01    0.7608014941E+00   -0.4737675667E+01    0.6181940556E+01    0.8631674427E-04    0    0
  -24    2    6    6    0    0    0.2443132782E+02    0.4229643345E+01   -0.2682635498E+02    0.3656012344E+02    0.1486474633E+01    0    0
 -211    1   11   11    0    0    0.4576549530E+01    0.8737283945E+00   -0.5588865280E+01    0.7277575493E+01    0.1395679265E+00    0    0
 -211    1   11   11    0    0    0.2890208244E+01    0.4968161583E+00   -0.3271292925E+01    0.4395562172E+01    0.1395679861E+00    0    0
 -211    1   11   11    0    0    0.6548870087E+01    0.1218496680E+01   -0.7381605625E+01    0.9943842888E+01    0.1395680159E+00    0    0
  211    1   11   11    0    0    0.6371143818E+01    0.1032786369E+01   -0.6479182720E+01    0.9146442413E+01    0.1395679116E+00    0    0
  211    1   11   11    0    0    0.4044556141E+01    0.6078158617E+00   -0.4105407238E+01    0.5796699524E+01    0.1395680159E+00    0    0
  -16    1    9    9    0    0   -0.2808370590E+01    0.1437053442E+01   -0.6457411289E+01    0.7186809540E+01    0.6724263076E-03    0    0
   24    2    9    9    0    0   -0.1208232307E+02    0.8029326439E+01   -0.2971715546E+02    0.3310093689E+02    0.1452603102E+01    0    0
  211    1   18   18    0    0   -0.6156181097E+00    0.4873042405E+00   -0.1210764408E+01    0.1449786544E+01    0.1395685673E+00    0    0
  130    1   18   18    0    0   -0.6269389629E+01    0.3979408264E+01   -0.1485143948E+02    0.1661186028E+02    0.4977200329E+00    0    0
  111    1   18   18    0    0   -0.5197314739E+01    0.3562613964E+01   -0.1365495014E+02    0.1503928757E+02    0.1349640042E+00    0    0
</event>
<event>
   17 9999    1    0.9119999695E+02    0.7565275169E-02    0.1185000000E+00
   11   -1    0    0    0    0    0.0000000000E+00    0.0000000000E+00    0.8000000000E+02    0.8000000000E+02    0.5109988851E-03    0    0
  -11   -1    0    0    0    0    0.0000000000E+00    0.0000000000E+00   -0.8000000000E+02    0.8000000000E+02    0.5109988851E-03    0    0
  -24    2    1    2    0    0    0.2220703316E+02   -0.6619307041E+01   -0.1114441299E+02    0.8456126404E+02    0.8055706787E+02    0    0
   24    2    1    2    0    0   -0.2221022415E+02    0.6622416973E+01    0.1113417244E+02    0.7542753601E+02    0.7090975189E+02    0    0
   22    1    1    2    0    0    0.3143707989E-02   -0.3109819023E-02    0.9713030420E-02    0.1067224611E-01    0.0000000000E+00    0    0
   22    1    1    2    0    0    0.4676599201E-04   -0.1744413680E-07    0.5276176962E-03    0.5296862219E-03    0.0000000000E+00    0    0
   15    2    3    3    0    0    0.4352839661E+02   -0.1297137451E+02   -0.3077361298E+02    0.5489217758E+02    0.1777029991E+01    0    0
  -16    1    3    3    0    0   -0.2132136345E+02    0.6352067947E+01    0.1962919998E+02    0.2966908836E+02    0.0000000000E+00    0    0
   16    1    4    4    0    0    0.1380594540E+02   -0.1835438156E+02    0.2025650978E+02    0.3062374306E+02    0.0000000000E+00    0    0
  -15    2    4    4    0    0   -0.3601617050E+02    0.2497679901E+02   -0.9122337341E+01    0.4480379105E+02    0.1777029991E+01    0    0
   16    1    7    7    0    0    0.2446457100E+02   -0.6969828606E+01   -0.1718021011E+02    0.3069614601E+02    0.2252933191E-03    0    0
  -24    2    7    7    0    0    0.1906553650E+02   -0.6002056599E+01   -0.1359461308E+02    0.2419818878E+02    0.1104281545E+01    0    0
 -211    1   12   12    0    0    0.3818234205E+01   -0.1185433030E+01   -0.3014469147E+01    0.5009058475E+01    0.1395680904E+00    0    0
  111    1   12   12    0    0    0.1762148976E+01   -0.6436244845E+00   -0.1488764405E+01    0.2398761272E+01    0.1349640936E+00    0    0
   22    1   12   12    0    0    0.1348515415E+02   -0.4172998905E+01   -0.9091379166E+01    0.1679036903E+02    0.1220703125E-03    0    0
  -16    1   10   10    0    0   -0.3255595016E+02    0.2227172089E+02   -0.8146176338E+01    0.4027753448E+02    0.2931117779E-03    0    0
  321    1   10   10    0    0   -0.3461637497E+01    0.2706062317E+01   -0.9765202403E+00    0.4528024673E+01    0.4936670363E+00    0    0
</event>
<event>
   18 9999    1    0.9119999695E+02    0.7565275169E-02    0.1185000000E+00
   11   -1    0    0    0    0    0.0000000000E+00    0.0000000000E+00    0.8000000000E+02    0.8000000000E+02    0.5109988851E-03    0    0
  -11   -1    0    0    0    0    0.0000000000E+00    0.0000000000E+00   -0.8000000000E+02    0.8000000000E+02    0.5109988851E-03    0    0
  -24    2    1    2    0    0   -0.7083498955E+01    0.9518559456E+01    0.9818727493E+01    0.8152066803E+02    0.8005268860E+02    0    0
   24    2    1    2    0    0    0.7083498955E+01   -0.9518559456E+01   -0.9818727493E+01    0.7847933197E+02    0.7695336151E+02    0    0
   15    2    3    3    0    0    0.3176626015E+02    0.1617801094E+02   -0.5693228841E+00    0.3569741058E+02    0.1777029991E+01    0    0
  -16    1    3    3    0    0   -0.4098587799E+02   -0.8087606430E+01    0.1096179485E+02    0.4319042206E+02    0.0000000000E+00    0    0
   22    1    3    3    0    0    0.2136119127E+01    0.1428155303E+01   -0.5737441182E+00    0.2632833958E+01    0.0000000000E+00    0    0
   16    1    4    4    0    0   -0.9330566406E+01   -0.3184375000E+02   -0.2953631210E+02    0.4442383957E+02    0.0000000000E+00    0    0
  -15    2    4    4    0    0    0.1641406631E+02    0.2232518959E+02    0.1971758461E+02    0.3405549240E+02    0.1777029991E+01    0    0
   16    1    5    5    0    0    0.4623878002E+01    0.2753395796E+01   -0.2468933314E+00    0.5387243748E+01    0.3636589099E-03    0    0
*****    2    5    5    0    0    0.2714370155E+02    0.1342528725E+02   -0.3224530220E+00    0.3031165314E+02    0.1293597341E+01    0    0
  111    1   11   11    0    0    0.1824112320E+02    0.9046402931E+01   -0.4071037173E+00    0.2036565781E+02    0.1349639148E+00    0    0
  111    1   11   11    0    0    0.1406632543E+01    0.8275935650E+00   -0.1691250205E+00    0.1646312475E+01    0.1349637806E+00    0    0
 -211    1   11   11    0    0    0.7495946884E+01    0.3551291943E+01    0.2537761927E+00    0.8299685478E+01    0.1395680606E+00    0    0
  -16    1    9    9    0    0    0.1082984543E+02    0.1478963280E+02    0.1336168671E+02    0.2268377113E+02    0.0000000000E+00    0    0
  323    2    9    9    0    0    0.5584867477E+01    0.7536436558E+01    0.6356674671E+01    0.1137306404E+02    0.9750185609E+00    0    0
  111    1   16   16    0    0    0.3870163679E+01    0.5372746944E+01    0.4602676392E+01    0.8065197945E+01    0.1349640340E+00    0    0
  321    1   16   16    0    0    0.1714703321E+01    0.2163689137E+01    0.1753997564E+01    0.3307865381E+01    0.4936670959E+00    0    0
</event>
<event>
   16 9999    1    0.9119999695E+02    0.7565275169E-02    0.1185000000E+00
   11   -1    0    0    0    0    0.0000000000E+00    0.0000000000E+00    0.8000000000E+02    0.8000000000E+02    0.5109988851E-03    0    0
  -11   -1    0    0    0    0    0.0000000000E+00    0.0000000000E+00   -0.8000000000E+02    0.8000000000E+02    0.5109988851E-03    0    0
  -24    2    1    2    0    0    0.1334643483E+01    0.9273117065E+01   -0.2787779093E+01    0.7927299500E+02    0.7866806030E+02    0    0
   24    2    1    2    0    0   -0.1334643483E+01   -0.9273117065E+01    0.2787779093E+01    0.8072700500E+02    0.8013304901E+02    0    0
   15    2    3    3    0    0    0.1400564957E+02    0.1939500237E+02    0.3252468491E+02    0.4041456985E+02    0.1777029991E+01    0    0
  -16    1    3    3    0    0   -0.1267100620E+02   -0.1012188530E+02   -0.3531246567E+02    0.3885842514E+02    0.0000000000E+00    0    0
   16    1    4    4    0    0   -0.3462477875E+02   -0.1056042552E+01   -0.1953861046E+02    0.3977119064E+02    0.0000000000E+00    0    0
  -15    2    4    4    0    0    0.3329013443E+02   -0.8217075348E+01    0.2232638931E+02    0.4095581436E+02    0.1777029991E+01    0    0
   16    1    5    5    0    0    0.9244535446E+01    0.1351308250E+02    0.2137712479E+02    0.2692668343E+02    0.2114319796E-03    0    0
   13    1    5    5    0    0    0.1795371175E+01    0.1772182345E+01    0.3737589121E+01    0.4510512829E+01    0.1056589633E+00    0    0
  -14    1    5    5    0    0    0.2966294765E+01    0.4110500336E+01    0.7411251545E+01    0.8978961945E+01    0.0000000000E+00    0    0
  -16    1    8    8    0    0    0.3440729618E+01   -0.1210996389E+01    0.2409118891E+01    0.4371382713E+01    0.3300980898E-03    0    0
20213    2    8    8    0    0    0.2985071564E+02   -0.7006402493E+01    0.1991814995E+02    0.3658604431E+02    0.1284986258E+01    0    0
  211    1   13   13    0    0    0.5377213955E+01   -0.8142895103E+00    0.3386625528E+01    0.6408292294E+01    0.1395682544E+00    0    0
  211    1   13   13    0    0    0.1463524818E+02   -0.3701843262E+01    0.9986909866E+01    0.1810116005E+02    0.1395681798E+00    0    0
 -211    1   13   13    0    0    0.9838252068E+01   -0.2490269423E+01    0.6544613361E+01    0.1207659340E+02    0.1395680606E+00    0    0
</event>
<event>
   21 9999    1    0.9119999695E+02    0.7565275169E-02    0.1185000000E+00
   11   -1    0    0    0    0    0.0000000000E+00    0.0000000000E+00    0.8000000000E+02    0.8000000000E+02    0.5109988851E-03    0    0
  -11   -1    0    0    0    0    0.0000000000E+00    0.0000000000E+00   -0.8000000000E+02    0.8000000000E+02    0.5109988851E-03    0    0
  -24    2    1    2    0    0   -0.2532453537E+02    0.1261789513E+02    0.3842155838E+02    0.9478121185E+02    0.8189456177E+02    0    0
   24    2    1    2    0    0    0.2532337189E+02   -0.1261808205E+02   -0.3832638550E+02    0.6512360382E+02    0.4440364075E+02    0    0
   22    1    1    2    0    0    0.1164389541E-02    0.1872914727E-03   -0.9517209977E-01    0.9517940879E-01    0.0000000000E+00    0    0
   15    2    3    3    0    0   -0.6164668083E+01    0.2823515701E+02    0.5695089722E+02    0.6388888550E+02    0.1777029991E+01    0    0
  -16    1    3    3    0    0   -0.1915986824E+02   -0.1561726189E+02   -0.1852934074E+02    0.3089232635E+02    0.0000000000E+00    0    0
   16    1    4    4    0    0    0.3513552427E+01    0.9975181580E+01    0.4907585144E+01    0.1165906048E+02    0.0000000000E+00    0    0
  -15    2    4    4    0    0    0.2180982018E+02   -0.2259326363E+02   -0.4323397064E+02    0.5346454620E+02    0.1777029991E+01    0    0
   16    1    6    6    0    0   -0.3849937916E+00    0.1472961187E+01    0.2930409908E+01    0.3302292585E+01    0.1221299044E-04    0    0
  -24    2    6    6    0    0   -0.5779917240E+01    0.2676330757E+02    0.5402273178E+02    0.6058911133E+02    0.1703735828E+01    0    0
 -211    1   11   11    0    0   -0.7236319780E+00    0.3559673786E+01    0.6807791710E+01    0.7717540264E+01    0.1395679712E+00    0    0
 -211    1   11   11    0    0   -0.1955047101E+00    0.1513998389E+01    0.3176694632E+01    0.3527220011E+01    0.1395680457E+00    0    0
 -211    1   11   11    0    0   -0.5118609071E+00    0.2460213423E+01    0.4841957092E+01    0.5456984520E+01    0.1395679861E+00    0    0
  211    1   11   11    0    0   -0.3271760941E+00    0.2165353298E+01    0.4437338829E+01    0.4950278282E+01    0.1395679712E+00    0    0
  211    1   11   11    0    0   -0.1675135612E+01    0.7169157028E+01    0.1384560966E+02    0.1568194103E+02    0.1395679116E+00    0    0
  111    1   11   11    0    0   -0.2346607924E+01    0.9894910812E+01    0.2091333771E+02    0.2325514603E+02    0.1349638999E+00    0    0
  -16    1    9    9    0    0    0.1487621307E+02   -0.1508127213E+02   -0.2858208656E+02    0.3557642746E+02    0.1831054688E-03    0    0
  323    2    9    9    0    0    0.6934463501E+01   -0.7512879372E+01   -0.1465358448E+02    0.1789022255E+02    0.8957620263E+00    0    0
  211    1   19   19    0    0    0.2718321085E+01   -0.3269257307E+01   -0.6392244339E+01    0.7678383827E+01    0.1395676434E+00    0    0
  130    1   19   19    0    0    0.4216142654E+01   -0.4243622780E+01   -0.8261340141E+01    0.1021183968E+02    0.4977200031E+00    0    0
</event>
<event>
   22 9999    1    0.9119999695E+02    0.7565275169E-02    0.1185000000E+00
   11   -1    0    0    0    0    0.0000000000E+00    0.0000000000E+00    0.8000000000E+02    0.8000000000E+02    0.5109988851E-03    0    0
  -11   -1    0    0    0    0    0.0000000000E+00    0.0000000000E+00   -0.8000000000E+02    0.8000000000E+02    0.5109988851E-03    0    0
  -24    2    1    2    0    0   -0.1460544968E+02    0.1691679382E+02    0.2576102257E+01    0.7637439728E+02    0.7298571777E+02    0    0
   24    2    1    2    0    0    0.1460553741E+02   -0.1691684341E+02   -0.2596113682E+01    0.8360538483E+02    0.8052091980E+02    0    0
   22    1    1    2    0    0    0.1123687525E-05   -0.1564435024E-05    0.2009104565E-01    0.2009104565E-01    0.0000000000E+00    0    0
   22    1    1    2    0    0   -0.8837196947E-04    0.5096906534E-04   -0.7944259414E-04    0.1293003297E-03    0.0000000000E+00    0    0
   15    2    3    3    0    0   -0.1316496849E+02    0.3555202484E+02    0.2542946434E+02    0.4568455505E+02    0.1777029991E+01    0    0
  -16    1    3    3    0    0   -0.1256653547E+01   -0.1911626053E+02   -0.2318615723E+02    0.3007670593E+02    0.0000000000E+00    0    0
   22    1    3    3    0    0   -0.1838276386E+00    0.4810299873E+00    0.3327950239E+00    0.6131353378E+00    0.0000000000E+00    0    0
   16    1    4    4    0    0    0.2052311134E+02    0.1524786472E+02    0.2860775948E+02    0.3836794662E+02    0.0000000000E+00    0    0
  -15    2    4    4    0    0   -0.5917573452E+01   -0.3216470718E+02   -0.3120387268E+02    0.4523743439E+02    0.1777029991E+01    0    0
   16    1    7    7    0    0   -0.1003085136E+02    0.2582792664E+02    0.1831007385E+02    0.3321081924E+02    0.1726334885E-03    0    0
 -213    2    7    7    0    0   -0.3134613037E+01    0.9725435257E+01    0.7120346546E+01    0.1247545147E+02    0.7263944149E+00    0    0
 -211    1   13   13    0    0   -0.1781286001E+00    0.1148502111E+01    0.7939141393E+00    0.1414413571E+01    0.1395681053E+00    0    0
  111    1   13   13    0    0   -0.2956484795E+01    0.8576933861E+01    0.6326433182E+01    0.1106103802E+02    0.1349642873E+00    0    0
  -16    1   11   11    0    0   -0.4182437807E-01   -0.5513425469E+00   -0.6789640784E+00    0.8756256700E+00    0.3492896503E-03    0    0
   24    2   11   11    0    0   -0.5875981808E+01   -0.3161463165E+02   -0.3052613640E+02    0.4436359024E+02    0.1507014513E+01    0    0
  211    1   17   17    0    0   -0.1096844554E+01   -0.5502923012E+01   -0.5862867832E+01    0.8116521835E+01    0.1395678222E+00    0    0
  211    1   17   17    0    0   -0.1430872202E+01   -0.8167406082E+01   -0.7647358894E+01    0.1128075790E+02    0.1395678520E+00    0    0
 -211    1   17   17    0    0   -0.1875200272E+01   -0.1094448185E+02   -0.1014461327E+02    0.1504096794E+02    0.1395679563E+00    0    0
  111    1   17   17    0    0   -0.1057539582E+01   -0.4571102619E+01   -0.4572101593E+01    0.6552533627E+01    0.1349640191E+00    0    0
  111    1   17   17    0    0   -0.4155262709E+00   -0.2428723574E+01   -0.2299199343E+01    0.3372817039E+01    0.1349638551E+00    0    0
</event>
<event>
   15 9999    1    0.9119999695E+02    0.7565275169E-02    0.1185000000E+00
   11   -1    0    0    0    0    0.0000000000E+00    0.0000000000E+00    0.8000000000E+02    0.8000000000E+02    0.5109988851E-03    0    0
  -11   -1    0    0    0    0    0.0000000000E+00    0.0000000000E+00   -0.8000000000E+02    0.8000000000E+02    0.5109988851E-03    0    0
  -24    2    1    2    0    0   -0.4011482716E+01   -0.3801117182E+01    0.1164942265E+02    0.7818119049E+02    0.7711063385E+02    0    0
   24    2    1    2    0    0    0.4011482716E+01    0.3801117182E+01   -0.1164942265E+02    0.8181880951E+02    0.8079645538E+02    0    0
   15    2    3    3    0    0   -0.1506474590E+02   -0.3646377563E+02   -0.5144425869E+01    0.3982682800E+02    0.1777029991E+01    0    0
  -16    1    3    3    0    0    0.1105326366E+02    0.3266265869E+02    0.1679384804E+02    0.3835436249E+02    0.0000000000E+00    0    0
   16    1    4    4    0    0    0.5277178288E+01    0.1993856049E+02    0.3039434624E+02    0.3673160934E+02    0.0000000000E+00    0    0
  -15    2    4    4    0    0   -0.1265695691E+01   -0.1613744354E+02   -0.4204376984E+02    0.4508719635E+02    0.1777029991E+01    0    0
   16    1    5    5    0    0   -0.1156933975E+02   -0.2980591583E+02   -0.4149188995E+01    0.3224062729E+02    0.2153868700E-03    0    0
   11    1    5    5    0    0   -0.7479138970E+00   -0.1326150298E+01   -0.1826051027E+00    0.1533425808E+01    0.5178302526E-03    0    0
  -12    1    5    5    0    0   -0.2748085499E+01   -0.5333144665E+01   -0.8128346205E+00    0.6054346085E+01    0.2108806657E-03    0    0
  -16    1    8    8    0    0   -0.3787429333E+00   -0.3938668728E+01   -0.9265618324E+01    0.1007513046E+02    0.1220703125E-03    0    0
   24    2    8    8    0    0   -0.8870026469E+00   -0.1219941139E+02   -0.3277980804E+02    0.3501384735E+02    0.1356892824E+01    0    0
  321    1   13   13    0    0   -0.8589949608E+00   -0.5487191677E+01   -0.1481736469E+02    0.1583177662E+02    0.4936669469E+00    0    0
  310    1   13   13    0    0   -0.2800752595E-01   -0.6712218285E+01   -0.1796244049E+02    0.1918206596E+02    0.4977200329E+00    0    0
</event>
<event>
   18 9999    1    0.9119999695E+02    0.7565275169E-02    0.1185000000E+00
   11   -1    0    0    0    0    0.0000000000E+00    0.0000000000E+00    0.8000000000E+02    0.8000000000E+02    0.5109988851E-03    0    0
  -11   -1    0    0    0    0    0.0000000000E+00    0.0000000000E+00   -0.8000000000E+02    0.8000000000E+02    0.5109988851E-03    0    0
  -24    2    1    2    0    0    0.1446869659E+02   -0.2694414139E+01    0.5160971642E+01    0.8125554657E+02    0.7974475098E+02    0    0
   24    2    1    2    0    0   -0.1446876049E+02    0.2694461107E+01   -0.4886659622E+01    0.7847014618E+02    0.7692255402E+02    0    0
   22    1    1    2    0    0    0.6361422857E-04   -0.4701072248E-04   -0.2743119299E+00    0.2743119299E+00    0.0000000000E+00    0    0
   15    2    3    3    0    0    0.4463383865E+02   -0.1659940720E+02    0.8233243972E-01    0.4765380096E+02    0.1777029991E+01    0    0
  -16    1    3    3    0    0   -0.3016514397E+02    0.1390499210E+02    0.5078639030E+01    0.3360174561E+02    0.0000000000E+00    0    0
   16    1    4    4    0    0    0.1646166039E+02    0.3042020607E+02    0.6868978500E+01    0.3526411819E+02    0.0000000000E+00    0    0
  -15    2    4    4    0    0   -0.3093041992E+02   -0.2772574425E+02   -0.1175563812E+02    0.4320602417E+02    0.1777029991E+01    0    0
   16    1    6    6    0    0    0.1833125305E+02   -0.6246417046E+01   -0.4671750590E-01    0.1936633110E+02    0.4805912904E-03    0    0
*****    2    6    6    0    0    0.2630434799E+02   -0.1035364437E+02    0.1290531904E+00    0.2828934860E+02    0.1074220181E+01    0    0
 -211    1   11   11    0    0    0.4450441360E+01   -0.1930191159E+01    0.1659922302E+00    0.4855831146E+01    0.1395680755E+00    0    0
 -211    1   11   11    0    0    0.7441438198E+01   -0.3226149559E+01   -0.3267322481E-01    0.8111941338E+01    0.1395679265E+00    0    0
  211    1   11   11    0    0    0.1441246605E+02   -0.5197303295E+01   -0.4265788011E-02    0.1532157421E+02    0.1395680308E+00    0    0
  -16    1    9    9    0    0   -0.1182158113E+01   -0.1176872253E+01   -0.7779300213E+00    0.1840570927E+01    0.1495049946E-03    0    0
  323    2    9    9    0    0   -0.2974947929E+02   -0.2654996490E+02   -0.1097817135E+02    0.4136715698E+02    0.8883830905E+00    0    0
  211    1   16   16    0    0   -0.1672806931E+02   -0.1479174328E+02   -0.5948038101E+01    0.2310892868E+02    0.1395679265E+00    0    0
  310    1   16   16    0    0   -0.1302141094E+02   -0.1175822163E+02   -0.5030133724E+01    0.1825822830E+02    0.4977199733E+00    0    0
</event>
<event>
   16 9999    1    0.9119999695E+02    0.7565275169E-02    0.1185000000E+00
   11   -1    0    0    0    0    0.0000000000E+00    0.0000000000E+00    0.8000000000E+02    0.8000000000E+02    0.5109988851E-03    0    0
  -11   -1    0    0    0    0    0.0000000000E+00    0.0000000000E+00   -0.8000000000E+02    0.8000000000E+02    0.5109988851E-03    0    0
  -24    2    1    2    0    0    0.3951959610E+01   -0.1726497151E-01    0.4121947289E+01    0.7887462616E+02    0.7866764069E+02    0    0
   24    2    1    2    0    0   -0.3952860832E+01    0.1715742797E-01   -0.3982442617E+01    0.8098586273E+02    0.8079124451E+02    0    0
   22    1    1    2    0    0    0.9012269438E-03    0.1075425243E-03   -0.1395047754E+00    0.1395077407E+00    0.0000000000E+00    0    0
   15    2    3    3    0    0    0.3895555735E+01    0.3877168274E+02    0.8238228798E+01    0.3986784363E+02    0.1777029991E+01    0    0
  -16    1    3    3    0    0    0.5640387908E-01   -0.3878894806E+02   -0.4116281986E+01    0.3900678635E+02    0.0000000000E+00    0    0
   16    1    4    4    0    0   -0.3120533752E+02    0.2135683632E+02    0.1590941048E+02    0.4102434540E+02    0.0000000000E+00    0    0
  -15    2    4    4    0    0    0.2725247574E+02   -0.2133967972E+02   -0.1989185333E+02    0.3996152115E+02    0.1777029991E+01    0    0
   16    1    6    6    0    0    0.1886504650E+01    0.2492590523E+02    0.4831800938E+01    0.2545988846E+02    0.2990099892E-03    0    0
 -321    1    6    6    0    0    0.2009204626E+01    0.1384730339E+02    0.3406752825E+01    0.1440952492E+02    0.4936670363E+00    0    0
  -16    1    9    9    0    0    0.6571105480E+01   -0.5434931278E+01   -0.5064026833E+01    0.9917776108E+01    0.6516771391E-03    0    0
   24    2    9    9    0    0    0.2068244171E+02   -0.1590558624E+02   -0.1482860756E+02    0.3004531288E+02    0.1442984939E+01    0    0
  130    1   13   13    0    0    0.6679407120E+01   -0.4999676228E+01   -0.4622157097E+01    0.9551089287E+01    0.4977200329E+00    0    0
  211    1   13   13    0    0    0.3799656391E+01   -0.2692009449E+01   -0.2463706493E+01    0.5270069599E+01    0.1395680457E+00    0    0
  130    1   13   13    0    0    0.1020337868E+02   -0.8213901520E+01   -0.7742744446E+01    0.1522415638E+02    0.4977200627E+00    0    0
</event>
<event>
   20 9999    1    0.9119999695E+02    0.7565275169E-02    0.1185000000E+00
   11   -1    0    0    0    0    0.0000000000E+00    0.0000000000E+00    0.8000000000E+02    0.8000000000E+02    0.5109988851E-03    0    0
  -11   -1    0    0    0    0    0.0000000000E+00    0.0000000000E+00   -0.8000000000E+02    0.8000000000E+02    0.5109988851E-03    0    0
  -24    2    1    2    0    0    0.4738010883E+01    0.8741667747E+01    0.4069736004E+01    0.8008397675E+02    0.7936003876E+02    0    0
   24    2    1    2    0    0   -0.4738010883E+01   -0.8741667747E+01   -0.4069736004E+01    0.7991602325E+02    0.7919054413E+02    0    0
   15    2    3    3    0    0    0.8773999214E+01    0.3246594620E+02    0.2971706009E+02    0.4491416550E+02    0.1777029991E+01    0    0
  -16    1    3    3    0    0   -0.4035987854E+01   -0.2372427940E+02   -0.2564732552E+02    0.3516981506E+02    0.0000000000E+00    0    0
   16    1    4    4    0    0   -0.9553874016E+01    0.2544076157E+02    0.2332343292E+02    0.3581188965E+02    0.0000000000E+00    0    0
  -15    2    4    4    0    0    0.4815863132E+01   -0.3418243027E+02   -0.2739316750E+02    0.4410413361E+02    0.1777029991E+01    0    0
   16    1    5    5    0    0    0.2176010847E+01    0.7356983185E+01    0.6616947174E+01    0.1013134861E+02    0.5933295470E-03    0    0
  -24    2    5    5    0    0    0.6598333359E+01    0.2511024094E+02    0.2310128212E+02    0.3478458405E+02    0.1495283484E+01    0    0
 -211    1   10   10    0    0    0.1970725417E+01    0.7387594223E+01    0.6240979671E+01    0.9870644569E+01    0.1395684332E+00    0    0
 -211    1   10   10    0    0    0.2242496252E+01    0.8592226028E+01    0.7863085270E+01    0.1186181831E+02    0.1395680606E+00    0    0
  211    1   10   10    0    0    0.1734378934E+00    0.7088696361E+00    0.6548748016E+00    0.9904125929E+00    0.1395681053E+00    0    0
  111    1   10   10    0    0    0.1250167847E+01    0.4758733749E+01    0.4744426250E+01    0.6836392403E+01    0.1349639595E+00    0    0
  111    1   10   10    0    0    0.9615048766E+00    0.3662813902E+01    0.3597913504E+01    0.5225312710E+01    0.1349639744E+00    0    0
  -16    1    8    8    0    0    0.1745727777E+01   -0.1432113934E+02   -0.1120810986E+02    0.1826921844E+02    0.4608053132E-03    0    0
20213    2    8    8    0    0    0.3070325136E+01   -0.1986263657E+02   -0.1618613815E+02    0.2583665276E+02    0.1261078119E+01    0    0
  111    1   17   17    0    0    0.1264613390E+01   -0.8874817848E+01   -0.7264236450E+01    0.1153902054E+02    0.1349641234E+00    0    0
  111    1   17   17    0    0    0.1112136245E+01   -0.8847453117E+01   -0.7131227016E+01    0.1141870785E+02    0.1349641830E+00    0    0
  211    1   17   17    0    0    0.6935754418E+00   -0.2140365601E+01   -0.1790674806E+01    0.2878924608E+01    0.1395681053E+00    0    0
</event>
<event>
   19 9999    1    0.9119999695E+02    0.7565275169E-02    0.1185000000E+00
   11   -1    0    0    0    0    0.0000000000E+00    0.0000000000E+00    0.8000000000E+02    0.8000000000E+02    0.5109988851E-03    0    0
  -11   -1    0    0    0    0    0.0000000000E+00    0.0000000000E+00   -0.8000000000E+02    0.8000000000E+02    0.5109988851E-03    0    0
  -24    2    1    2    0    0   -0.6877327919E+01   -0.1476753902E+02    0.1969248205E+00    0.7947113800E+02    0.7778331757E+02    0    0
   24    2    1    2    0    0    0.6877327919E+01    0.1476753902E+02   -0.1969248205E+00    0.8052886200E+02    0.7886368561E+02    0    0
   15    2    3    3    0    0   -0.6528779984E+01   -0.2352322102E+01    0.3852271652E+02    0.3918310547E+02    0.1777029991E+01    0    0
  -16    1    3    3    0    0   -0.3485479951E+00   -0.1241521740E+02   -0.3832579041E+02    0.4028802872E+02    0.0000000000E+00    0    0
   16    1    4    4    0    0    0.4933045387E+01    0.4746697617E+02    0.4140007868E-01    0.4772264099E+02    0.0000000000E+00    0    0
  -15    2    4    4    0    0    0.1944282413E+01   -0.3269944000E+02   -0.2383248955E+00    0.3280622101E+02    0.1777029991E+01    0    0
   16    1    5    5    0    0   -0.8766345978E+00   -0.4782405496E+00    0.5339299679E+01    0.5431879997E+01    0.6103515625E-04    0    0
  -24    2    5    5    0    0   -0.5652402401E+01   -0.1874174237E+01    0.3318493271E+02    0.3375276947E+02    0.1596082568E+01    0    0
 -211    1   10   10    0    0   -0.6845530272E+00   -0.4124068022E+00    0.4264819622E+01    0.4341296673E+01    0.1395680010E+00    0    0
 -211    1   10   10    0    0   -0.2623050928E+01   -0.8860607147E+00    0.1530484676E+02    0.1555388451E+02    0.1395680159E+00    0    0
 -211    1   10   10    0    0   -0.8274838924E+00   -0.3528093398E+00    0.6034484863E+01    0.6102760792E+01    0.1395680010E+00    0    0
  211    1   10   10    0    0   -0.1176503539E+01    0.3359806957E-02    0.5026878834E+01    0.5164606571E+01    0.1395680606E+00    0    0
  211    1   10   10    0    0   -0.3408109546E+00   -0.2262571007E+00    0.2553902388E+01    0.2590220213E+01    0.1395680159E+00    0    0
  -16    1    8    8    0    0    0.9920053482E+00   -0.1095172501E+02   -0.6821978688E+00    0.1101770210E+02    0.2441406250E-03    0    0
  213    2    8    8    0    0    0.9523535371E+00   -0.2174899864E+02    0.4438636005E+00    0.2178981018E+02    0.8202665448E+00    0    0
  211    1   17   17    0    0    0.4458737671E+00   -0.1484168720E+02    0.5955642462E+00    0.1486097813E+02    0.1395682842E+00    0    0
  111    1   17   17    0    0    0.5064798594E+00   -0.6907312393E+01   -0.1517007947E+00    0.6928832054E+01    0.1349640340E+00    0    0
</event>
<event>
   21 9999    1    0.9119999695E+02    0.7565275169E-02    0.1185000000E+00
   11   -1    0    0    0    0    0.0000000000E+00    0.0000000000E+00    0.8000000000E+02    0.8000000000E+02    0.5109988851E-03    0    0
  -11   -1    0    0    0    0    0.0000000000E+00    0.0000000000E+00   -0.8000000000E+02    0.8000000000E+02    0.5109988851E-03    0    0
  -24    2    1    2    0    0    0.1125985432E+02    0.1111878014E+02    0.6599910259E+01    0.8197495270E+02    0.8016184998E+02    0    0
   24    2    1    2    0    0   -0.1127040672E+02   -0.1111315155E+02   -0.5688726902E+01    0.7680053711E+02    0.7493621826E+02    0    0
   22    1    1    2    0    0    0.1820715624E-04    0.9689102444E-04   -0.1067221403E+01    0.1067221403E+01    0.0000000000E+00    0    0
   22    1    1    2    0    0    0.1053395588E-01   -0.5725315306E-02    0.1564354450E+00    0.1568942070E+00    0.0000000000E+00    0    0
   22    1    1    2    0    0    0.2786482867E-07    0.1351841803E-06   -0.3974260180E-03    0.3974260180E-03    0.0000000000E+00    0    0
   15    2    3    3    0    0   -0.1595106220E+02   -0.8295790672E+01    0.3416529083E+02    0.3864817429E+02    0.1777029991E+01    0    0
  -16    1    3    3    0    0    0.2721091652E+02    0.1941456985E+02   -0.2756537819E+02    0.4332677841E+02    0.0000000000E+00    0    0
   16    1    4    4    0    0   -0.2901542091E+02    0.2357596779E+02   -0.5547382832E+01    0.3779542923E+02    0.0000000000E+00    0    0
  -15    2    4    4    0    0    0.1774501419E+02   -0.3468912125E+02   -0.1413442045E+00    0.3900510788E+02    0.1777029991E+01    0    0
   16    1    8    8    0    0   -0.1503743052E+01   -0.5020225048E+00    0.3172505379E+01    0.3546555996E+01    0.3737624793E-03    0    0
  -24    2    8    8    0    0   -0.1444794750E+02   -0.7794095039E+01    0.3099412918E+02    0.3510314178E+02    0.1450270057E+01    0    0
 -321    1   13   13    0    0   -0.6559168339E+01   -0.3452766418E+01    0.1365994740E+02    0.1554934597E+02    0.4936670065E+00    0    0
 -211    1   13   13    0    0   -0.2326343298E+01   -0.1004025817E+01    0.5173793316E+01    0.5762599945E+01    0.1395679563E+00    0    0
  321    1   13   13    0    0   -0.5562435627E+01   -0.3337302446E+01    0.1216038799E+02    0.1379119396E+02    0.4936670363E+00    0    0
  -16    1   11   11    0    0    0.1309273362E+01   -0.2539071321E+01   -0.3159890473E+00    0.2874183178E+01    0.4139605735E-03    0    0
   24    2   11   11    0    0    0.1643643951E+02   -0.3215141296E+02    0.1746392697E+00    0.3613245773E+02    0.1286137938E+01    0    0
  321    1   18   18    0    0    0.6726571560E+01   -0.1310209942E+02    0.7256692648E-01    0.1473637486E+02    0.4936672151E+00    0    0
  111    1   18   18    0    0    0.3558287859E+01   -0.6533282280E+01    0.8258577436E-01    0.7441117287E+01    0.1349641085E+00    0    0
  310    1   18   18    0    0    0.6151580334E+01   -0.1251603317E+02    0.1948661171E-01    0.1395496845E+02    0.4977200329E+00    0    0
</event>
<event>
   18 9999    1    0.9119999695E+02    0.7565275169E-02    0.1185000000E+00
   11   -1    0    0    0    0    0.0000000000E+00    0.0000000000E+00    0.8000000000E+02    0.8000000000E+02    0.5109988851E-03    0    0
  -11   -1    0    0    0    0    0.0000000000E+00    0.0000000000E+00   -0.8000000000E+02    0.8000000000E+02    0.5109988851E-03    0    0
  -24    2    1    2    0    0    0.3229496956E+01   -0.3202985764E+01    0.9625250816E+01    0.7956699371E+02    0.7885158539E+02    0    0
   24    2    1    2    0    0   -0.3229496956E+01    0.3202985525E+01   -0.9625635147E+01    0.8043262482E+02    0.7972493744E+02    0    0
   22    1    1    2    0    0    0.1067836521E-06    0.2803734276E-06    0.3843456507E-03    0.3843457671E-03    0.0000000000E+00    0    0
   15    2    3    3    0    0    0.3634643173E+02    0.1655493736E+02    0.9096187592E+01    0.4100033569E+02    0.1777029991E+01    0    0
  -16    1    3    3    0    0   -0.3311693573E+02   -0.1975792313E+02    0.5290632844E+00    0.3856665421E+02    0.0000000000E+00    0    0
   16    1    4    4    0    0    0.1337428761E+02   -0.3519587326E+02   -0.8210331917E+01    0.3853609467E+02    0.0000000000E+00    0    0
  -15    2    4    4    0    0   -0.1660378456E+02    0.3839886093E+02   -0.1415302753E+01    0.4189652634E+02    0.1777029991E+01    0    0
   16    1    6    6    0    0    0.7314510345E+01    0.3064737320E+01    0.2265645742E+01    0.8247898102E+01    0.0000000000E+00    0    0
  -24    2    6    6    0    0    0.2903335190E+02    0.1349085045E+02    0.6830899239E+01    0.3275405121E+02    0.1108177185E+01    0    0
 -321    1   11   11    0    0    0.1520672989E+02    0.7332921028E+01    0.3643860817E+01    0.1727824593E+02    0.4936670363E+00    0    0
  310    1   11   11    0    0    0.1382662392E+02    0.6157930374E+01    0.3187038898E+01    0.1547580624E+02    0.4977200925E+00    0    0
  -16    1    9    9    0    0   -0.5822631359E+01    0.1376291084E+02   -0.5827100277E+00    0.1495527744E+02    0.1258271950E-03    0    0
   24    2    9    9    0    0   -0.1078180695E+02    0.2463746071E+02   -0.8326484561E+00    0.2694290161E+02    0.1405253530E+01    0    0
  321    1   15   15    0    0   -0.6664058685E+01    0.1528376389E+02   -0.5147136450E+00    0.1668867111E+02    0.4936669171E+00    0    0
  211    1   15   15    0    0   -0.2500831842E+01    0.5688140869E+01   -0.5449916124E+00    0.6239038467E+01    0.1395679861E+00    0    0
 -211    1   15   15    0    0   -0.1616917849E+01    0.3665559769E+01    0.2270566821E+00    0.4015194416E+01    0.1395679563E+00    0    0
</event>
<event>
   21 9999    1    0.9119999695E+02    0.7565275169E-02    0.1185000000E+00
   11   -1    0    0    0    0    0.0000000000E+00    0.0000000000E+00    0.8000000000E+02    0.8000000000E+02    0.5109988851E-03    0    0
  -11   -1    0    0    0    0    0.0000000000E+00    0.0000000000E+00   -0.8000000000E+02    0.8000000000E+02    0.5109988851E-03    0    0
  -24    2    1    2    0    0    0.4179160893E+00   -0.9320519447E+01    0.2107719898E+01    0.8420358276E+02    0.8365855408E+02    0    0
   24    2    1    2    0    0   -0.4179160595E+00    0.9320520401E+01   -0.2107885122E+01    0.7579625702E+02    0.7519030762E+02    0    0
   22    1    1    2    0    0   -0.2633655427E-07   -0.2095508620E-06    0.1653016079E-03    0.1653017389E-03    0.0000000000E+00    0    0
   15    2    3    3    0    0    0.1884230804E+02   -0.3931483078E+02    0.1583922386E+02    0.4641904068E+02    0.1777029991E+01    0    0
  -16    1    3    3    0    0   -0.1842439270E+02    0.2999431229E+02   -0.1373150444E+02    0.3778453827E+02    0.0000000000E+00    0    0
   16    1    4    4    0    0   -0.2899444771E+02    0.1505338573E+02    0.2076004601E+02    0.3870738983E+02    0.0000000000E+00    0    0
  -15    2    4    4    0    0    0.2857653236E+02   -0.5732865810E+01   -0.2286793137E+02    0.3708886719E+02    0.1777029991E+01    0    0
   16    1    6    6    0    0    0.4765840054E+01   -0.1083458328E+02    0.4636100292E+01    0.1271199608E+02    0.1495049946E-03    0    0
  -24    2    6    6    0    0    0.1407721043E+02   -0.2848179626E+02    0.1120374680E+02    0.3370887375E+02    0.1176260352E+01    0    0
 -211    1   11   11    0    0    0.2816679478E+01   -0.5450169563E+01    0.2286453485E+01    0.6548693180E+01    0.1395685524E+00    0    0
 -211    1   11   11    0    0    0.1946855187E+01   -0.3820343018E+01    0.1568412542E+01    0.4567785263E+01    0.1395682842E+00    0    0
  211    1   11   11    0    0    0.6013010025E+01   -0.1255931950E+02    0.5143908501E+01    0.1484493446E+02    0.1395680010E+00    0    0
  111    1   11   11    0    0    0.3300662994E+01   -0.6651959419E+01    0.2204970598E+01    0.7747454166E+01    0.1349641234E+00    0    0
  -16    1    9    9    0    0    0.1549522877E+01   -0.5592515469E+00   -0.1566587448E+01    0.2273319006E+01    0.4526488192E-03    0    0
   24    2    9    9    0    0    0.2702813339E+02   -0.5173840046E+01   -0.2130224419E+02    0.3481700897E+02    0.1072281122E+01    0    0
  211    1   17   17    0    0    0.4463883400E+01   -0.9638725519E+00   -0.3496312380E+01    0.5753171444E+01    0.1395684332E+00    0    0
  211    1   17   17    0    0    0.3592799664E+01   -0.5970460176E+00   -0.2796860695E+01    0.4594190121E+01    0.1395678967E+00    0    0
 -211    1   17   17    0    0    0.1632685852E+02   -0.2937634706E+01   -0.1304720306E+02    0.2110556793E+02    0.1395677924E+00    0    0
  111    1   17   17    0    0    0.2644591331E+01   -0.6752866507E+00   -0.1961866617E+01    0.3364076614E+01    0.1349640638E+00    0    0
</event>
<event>
   18 9999    1    0.9119999695E+02    0.7565275169E-02    0.1185000000E+00
   11   -1    0    0    0    0    0.0000000000E+00    0.0000000000E+00    0.8000000000E+02    0.8000000000E+02    0.5109988851E-03    0    0
  -11   -1    0    0    0    0    0.0000000000E+00    0.0000000000E+00   -0.8000000000E+02    0.8000000000E+02    0.5109988851E-03    0    0
  -24    2    1    2    0    0   -0.4463356972E+01    0.3488106489E+01    0.1141938972E+02    0.8026245117E+02    0.7924374390E+02    0    0
   24    2    1    2    0    0    0.4463328362E+01   -0.3488115072E+01   -0.1263757420E+02    0.7851936340E+02    0.7728838348E+02    0    0
   22    1    1    2    0    0    0.2888615199E-04    0.8655609236E-05    0.1218184352E+01    0.1218184352E+01    0.0000000000E+00    0    0
   15    2    3    3    0    0    0.4657993317E+01   -0.6014760017E+01    0.4422577286E+02    0.4491047668E+02    0.1777029991E+01    0    0
  -16    1    3    3    0    0   -0.9121350288E+01    0.9502866745E+01   -0.3280638123E+02    0.3535197449E+02    0.0000000000E+00    0    0
   16    1    4    4    0    0    0.3602390671E+02   -0.1809850502E+02   -0.1633813858E+02    0.4349957275E+02    0.0000000000E+00    0    0
  -15    2    4    4    0    0   -0.3156058121E+02    0.1461039066E+02    0.3700564623E+01    0.3501979065E+02    0.1777029991E+01    0    0
   16    1    6    6    0    0    0.9373899698E+00   -0.1746480703E+01    0.1228039646E+02    0.1243933392E+02    0.6072921096E-03    0    0
  -24    2    6    6    0    0    0.3720786333E+01   -0.4268516064E+01    0.3194711304E+02    0.3247290802E+02    0.1344332814E+01    0    0
 -211    1   11   11    0    0    0.6779390574E+00   -0.4731404185E+00    0.6442401409E+01    0.6496727943E+01    0.1395683885E+00    0    0
 -211    1   11   11    0    0    0.2389465094E+01   -0.3020250797E+01    0.2026426315E+02    0.2062743950E+02    0.1395677477E+00    0    0
  211    1   11   11    0    0    0.2756344378E+00   -0.3093808591E+00    0.2687556028E+01    0.2722889662E+01    0.1395680010E+00    0    0
  111    1   11   11    0    0    0.3777476847E+00   -0.4657440484E+00    0.2552893877E+01    0.2625850916E+01    0.1349640787E+00    0    0
  -16    1    9    9    0    0   -0.2125310707E+02    0.9288516998E+01    0.2339759350E+01    0.2331191826E+02    0.1779465238E-03    0    0
  -13    1    9    9    0    0   -0.6485970020E+01    0.3203544617E+01    0.4801585078E+00    0.7250670433E+01    0.1056589931E+00    0    0
   14    1    9    9    0    0   -0.3822747231E+01    0.2118904591E+01    0.8807924986E+00    0.4458581448E+01    0.3452669771E-03    0    0
</event>
<event>
   20 9999    1    0.9119999695E+02    0.7565275169E-02    0.1185000000E+00
   11   -1    0    0    0    0    0.0000000000E+00    0.0000000000E+00    0.8000000000E+02    0.8000000000E+02    0.5109988851E-03    0    0
  -11   -1    0    0    0    0    0.0000000000E+00    0.0000000000E+00   -0.8000000000E+02    0.8000000000E+02    0.5109988851E-03    0    0
  -24    2    1    2    0    0    0.4509477615E+01   -0.1422356033E+02   -0.9377080917E+01    0.7774373627E+02    0.7571997070E+02    0    0
   24    2    1    2    0    0   -0.4509305477E+01    0.1422361660E+02    0.9372899055E+01    0.8225205231E+02    0.8034242249E+02    0    0
   22    1    1    2    0    0   -0.1335665002E-03   -0.8382908709E-04    0.4148402251E-02    0.4151398316E-02    0.0000000000E+00    0    0
   15    2    3    3    0    0    0.1608069229E+02    0.1994610977E+02   -0.2728237534E+02    0.3746894455E+02    0.1777029991E+01    0    0
  -16    1    3    3    0    0   -0.1157121372E+02   -0.3416967010E+02    0.1790529442E+02    0.4027479172E+02    0.0000000000E+00    0    0
   16    1    4    4    0    0   -0.3099321365E+02    0.3568196487E+02    0.9031132698E+01    0.4811801529E+02    0.0000000000E+00    0    0
  -15    2    4    4    0    0    0.2648390961E+02   -0.2145834732E+02    0.3417661190E+00    0.3413404083E+02    0.1777029991E+01    0    0
   16    1    6    6    0    0    0.2937817812E+01    0.4364430904E+01   -0.5761242390E+01    0.7801983356E+01    0.4963212996E-03    0    0
  -24    2    6    6    0    0    0.1314350796E+02    0.1558246422E+02   -0.2152220726E+02    0.2966843796E+02    0.1202386498E+01    0    0
 -321    1   11   11    0    0    0.8134629250E+01    0.1021577549E+02   -0.1409303665E+02    0.1921956444E+02    0.4936670065E+00    0    0
 -211    1   11   11    0    0    0.2819824457E+01    0.2963607788E+01   -0.4212785244E+01    0.5873790741E+01    0.1395676434E+00    0    0
  211    1   11   11    0    0    0.2189054012E+01    0.2403080940E+01   -0.3216387510E+01    0.4575082779E+01    0.1395680457E+00    0    0
  -16    1    9    9    0    0    0.5550038338E+01   -0.5020520210E+01    0.1622973531E+00    0.7485645294E+01    0.4013960715E-03    0    0
   24    2    9    9    0    0    0.2093491554E+02   -0.1643867302E+02    0.1794822365E+00    0.2664974213E+02    0.1294548154E+01    0    0
  211    1   16   16    0    0    0.8309333801E+01   -0.6847476959E+01    0.3275559247E+00    0.1077310276E+02    0.1395684779E+00    0    0
  211    1   16   16    0    0    0.1923698306E+01   -0.1714716673E+01   -0.5040440708E-01    0.2581257105E+01    0.1395680308E+00    0    0
 -211    1   16   16    0    0    0.8297463417E+01   -0.6133412361E+01    0.4147311300E-01    0.1031929493E+02    0.1395678520E+00    0    0
  111    1   16   16    0    0    0.2404416084E+01   -0.1743065715E+01   -0.1391423494E+00    0.2976083040E+01    0.1349639744E+00    0    0
</event>
<event>
   17 9999    1    0.9119999695E+02    0.7565275169E-02    0.1185000000E+00
   11   -1    0    0    0    0    0.0000000000E+00    0.0000000000E+00    0.8000000000E+02    0.8000000000E+02    0.5109988851E-03    0    0
  -11   -1    0    0    0    0    0.0000000000E+00    0.0000000000E+00   -0.8000000000E+02    0.8000000000E+02    0.5109988851E-03    0    0
  -24    2    1    2    0    0    0.9135099411E+01    0.5586144447E+01   -0.1354036617E+02    0.7913460541E+02    0.7722881317E+02    0    0
   24    2    1    2    0    0   -0.9134545326E+01   -0.5585554123E+01    0.1359142399E+02    0.8077700806E+02    0.7890222168E+02    0    0
   22    1    1    2    0    0   -0.1238390250E-03   -0.2090154157E-03   -0.6971427053E-01    0.6971469522E-01    0.0000000000E+00    0    0
   22    1    1    2    0    0   -0.4306576739E-03   -0.3813441726E-03    0.1865724102E-01    0.1866610534E-01    0.0000000000E+00    0    0
   15    2    3    3    0    0    0.3006842995E+02   -0.2470868301E+02   -0.1624877548E+02    0.4221149063E+02    0.1777029991E+01    0    0
  -16    1    3    3    0    0   -0.2093333054E+02    0.3029482841E+02    0.2708409071E+01    0.3692311478E+02    0.0000000000E+00    0    0
   16    1    4    4    0    0    0.1523729610E+02   -0.1143316269E+02    0.4001254654E+02    0.4431587219E+02    0.0000000000E+00    0    0
  -15    2    4    4    0    0   -0.2437184143E+02    0.5847608566E+01   -0.2642112350E+02    0.3646113968E+02    0.1777029991E+01    0    0
   16    1    7    7    0    0    0.1342820358E+02   -0.1040642357E+02   -0.7693221569E+01    0.1864928818E+02    0.1726334885E-03    0    0
   13    1    7    7    0    0    0.1170039940E+02   -0.1045240021E+02   -0.6243115425E+01    0.1688607979E+02    0.1056586802E+00    0    0
  -14    1    7    7    0    0    0.4941011429E+01   -0.3850833893E+01   -0.2313078165E+01    0.6677787304E+01    0.1220703125E-03    0    0
  -16    1   10   10    0    0   -0.1509140491E+01    0.7113583088E+00   -0.1524997711E+01    0.2260343790E+01    0.1556097268E-03    0    0
  323    2   10   10    0    0   -0.2286365891E+02    0.5136480331E+01   -0.2489716530E+02    0.3420223236E+02    0.8907477260E+00    0    0
  111    1   15   15    0    0   -0.1213148689E+02    0.2602896214E+01   -0.1348793030E+02    0.1832731628E+02    0.1349638999E+00    0    0
  321    1   15   15    0    0   -0.1073217106E+02    0.2533583879E+01   -0.1140923405E+02    0.1587491322E+02    0.4936670661E+00    0    0
</event>
<event>
   16 9999    1    0.9119999695E+02    0.7565275169E-02    0.1185000000E+00
   11   -1    0    0    0    0    0.0000000000E+00    0.0000000000E+00    0.8000000000E+02    0.8000000000E+02    0.5109988851E-03    0    0
  -11   -1    0    0    0    0    0.0000000000E+00    0.0000000000E+00   -0.8000000000E+02    0.8000000000E+02    0.5109988851E-03    0    0
  -24    2    1    2    0    0   -0.1125613570E+01   -0.7530801773E+01    0.1100263214E+02    0.8033679199E+02    0.7921466064E+02    0    0
   24    2    1    2    0    0    0.1125613570E+01    0.7530801773E+01   -0.1100263214E+02    0.7966320801E+02    0.7853144836E+02    0    0
   15    2    3    3    0    0    0.1429447174E+02   -0.4927390575E+01    0.4251440430E+02    0.4515798569E+02    0.1777029991E+01    0    0
  -16    1    3    3    0    0   -0.1542008495E+02   -0.2603411436E+01   -0.3151177216E+02    0.3517881012E+02    0.0000000000E+00    0    0
   16    1    4    4    0    0   -0.3643621063E+02    0.1619381523E+02   -0.9356085777E+01    0.4095575333E+02    0.0000000000E+00    0    0
  -15    2    4    4    0    0    0.3408729935E+02   -0.8025908470E+01   -0.2193010092E+01    0.3513298035E+02    0.1777029991E+01    0    0
   22    1    4    4    0    0    0.3474527121E+01   -0.6371048093E+00    0.5464633107E+00    0.3574473858E+01    0.0000000000E+00    0    0
   16    1    5    5    0    0    0.8386257172E+01   -0.3270730257E+01    0.2526282310E+02    0.2681859779E+02    0.2157918607E-04    0    0
   13    1    5    5    0    0    0.4631039143E+01   -0.1044852376E+01    0.1425298977E+02    0.1502321911E+02    0.1056589037E+00    0    0
  -14    1    5    5    0    0    0.1277738094E+01   -0.6120018363E+00    0.3000265121E+01    0.3317943811E+01    0.2114319796E-03    0    0
  -16    1    8    8    0    0    0.1119294524E+01   -0.4814199507E+00   -0.2742931247E+00    0.1248928547E+01    0.1726334885E-03    0    0
  213    2    8    8    0    0    0.3296934891E+02   -0.7544805527E+01   -0.1918802619E+01    0.3388543701E+02    0.7993772626E+00    0    0
  211    1   14   14    0    0    0.5958125591E+01   -0.1083286166E+01   -0.3373669088E+00    0.6066800594E+01    0.1395680159E+00    0    0
  111    1   14   14    0    0    0.2701122284E+02   -0.6461518764E+01   -0.1581436872E+01    0.2781863976E+02    0.1349644661E+00    0    0
</event>
<event>
   22 9999    1    0.9119999695E+02    0.7565275169E-02    0.1185000000E+00
   11   -1    0    0    0    0    0.0000000000E+00    0.0000000000E+00    0.8000000000E+02    0.8000000000E+02    0.5109988851E-03    0    0
  -11   -1    0    0    0    0    0.0000000000E+00    0.0000000000E+00   -0.8000000000E+02    0.8000000000E+02    0.5109988851E-03    0    0
  -24    2    1    2    0    0    0.1112513351E+02   -0.1955331230E+02    0.2889135599E+01    0.8357365417E+02    0.8043698120E+02    0    0
   24    2    1    2    0    0   -0.1112513351E+02    0.1955331230E+02   -0.2890423775E+01    0.7642505646E+02    0.7298173523E+02    0    0
   22    1    1    2    0    0    0.2048657564E-06   -0.1875887818E-06    0.1288158819E-02    0.1288158819E-02    0.0000000000E+00    0    0
   15    2    3    3    0    0   -0.3281073380E+02   -0.1556104279E+02    0.1245532131E+02    0.3843154144E+02    0.1777029991E+01    0    0
  -16    1    3    3    0    0    0.4393586731E+02   -0.3992269993E+01   -0.9566185951E+01    0.4514211655E+02    0.0000000000E+00    0    0
   16    1    4    4    0    0   -0.3761038208E+02   -0.7506860256E+01    0.6146447062E+00    0.3835715866E+02    0.0000000000E+00    0    0
  -15    2    4    4    0    0    0.2648524857E+02    0.2706017303E+02   -0.3505068541E+01    0.3806789780E+02    0.1777029991E+01    0    0
   16    1    6    6    0    0   -0.7914607525E+01   -0.4060650349E+01    0.3122398615E+01    0.9427579880E+01    0.2712461574E-03    0    0
  -24    2    6    6    0    0   -0.2489741898E+02   -0.1150100517E+02    0.9333413124E+01    0.2900547218E+02    0.1431867480E+01    0    0
  111    1   11   11    0    0   -0.7129289627E+01   -0.3493375540E+01    0.2296522379E+01    0.8265752792E+01    0.1349637955E+00    0    0
  111    1   11   11    0    0   -0.8750319481E+01   -0.3882041693E+01    0.3725942612E+01    0.1027322769E+02    0.1349641234E+00    0    0
 -321    1   11   11    0    0   -0.9017809868E+01   -0.4125587463E+01    0.3310947895E+01    0.1046649170E+02    0.4936669767E+00    0    0
  -16    1    9    9    0    0    0.2196096897E+01    0.2394539833E+01   -0.1277210563E+00    0.3251611233E+01    0.3585003724E-03    0    0
   24    2    9    9    0    0    0.2429019547E+02    0.2466669846E+02   -0.3377485514E+01    0.3481778336E+02    0.1552762866E+01    0    0
  211    1   16   16    0    0    0.8701119423E+01    0.9295129776E+01   -0.9801287651E+00    0.1277063179E+02    0.1395678520E+00    0    0
  211    1   16   16    0    0    0.7012532711E+01    0.6606840611E+01   -0.1297993064E+01    0.9722665787E+01    0.1395674795E+00    0    0
 -211    1   16   16    0    0    0.5410841942E+01    0.5537062645E+01   -0.6707326174E+00    0.7772106171E+01    0.1395680159E+00    0    0
  111    1   16   16    0    0    0.1862941980E+01    0.1912583709E+01   -0.3009267151E+00    0.2690223217E+01    0.1349640191E+00    0    0
  111    1   16   16    0    0    0.1022936106E+01    0.1041532516E+01   -0.8564160019E-01    0.1468583584E+01    0.1349640340E+00    0    0
   22    1   16   16    0    0    0.2797983885E+00    0.2735250890E+00   -0.4205952957E-01    0.3935379386E+00    0.0000000000E+00    0    0
</event>
<event>
   19 9999    1    0.9119999695E+02    0.7565275169E-02    0.1185000000E+00
   11   -1    0    0    0    0    0.0000000000E+00    0.0000000000E+00    0.8000000000E+02    0.8000000000E+02    0.5109988851E-03    0    0
  -11   -1    0    0    0    0    0.0000000000E+00    0.0000000000E+00   -0.8000000000E+02    0.8000000000E+02    0.5109988851E-03    0    0
  -24    2    1    2    0    0    0.1192167187E+02    0.2072755432E+02    0.7264673710E+01    0.6981463623E+02    0.6518857574E+02    0    0
   24    2    1    2    0    0   -0.1192167091E+02   -0.2072755241E+02   -0.7282199383E+01    0.9016611481E+02    0.8663220978E+02    0    0
   22    1    1    2    0    0   -0.2450685699E-07   -0.1701685015E-07    0.1838904433E-01    0.1838904433E-01    0.0000000000E+00    0    0
   22    1    1    2    0    0   -0.5077451419E-06   -0.1121151627E-05   -0.8631504606E-03    0.8631513338E-03    0.0000000000E+00    0    0
   15    2    3    3    0    0    0.3149479675E+02    0.3279267120E+02    0.3853024960E+01    0.4566492081E+02    0.1777029991E+01    0    0
  -16    1    3    3    0    0   -0.1997937393E+02   -0.1227535343E+02    0.3376576662E+01    0.2369094849E+02    0.0000000000E+00    0    0
   22    1    3    3    0    0    0.4062490761E+00    0.2102366835E+00    0.3507207707E-01    0.4587677121E+00    0.0000000000E+00    0    0
   16    1    4    4    0    0    0.2037798500E+02   -0.1137464142E+02    0.3124412727E+02    0.3899795151E+02    0.0000000000E+00    0    0
  -15    2    4    4    0    0   -0.3229965591E+02   -0.9352911949E+01   -0.3852632904E+02    0.5116815948E+02    0.1777029991E+01    0    0
   16    1    7    7    0    0    0.1332758522E+02    0.1392355537E+02    0.1729158998E+01    0.1935148239E+02    0.3229676804E-03    0    0
  -24    2    7    7    0    0    0.1816849327E+02    0.1887045097E+02    0.2124022484E+01    0.2631529617E+02    0.1339908242E+01    0    0
 -321    1   13   13    0    0    0.3993254423E+01    0.3972257853E+01    0.7129626274E+00    0.5698853970E+01    0.4936670363E+00    0    0
 -211    1   13   13    0    0    0.9488265038E+01    0.1014338970E+02    0.9656731486E+00    0.1392363071E+02    0.1395679712E+00    0    0
  211    1   13   13    0    0    0.4686975002E+01    0.4754805565E+01    0.4453870952E+00    0.6692813396E+01    0.1395680457E+00    0    0
  -16    1   11   11    0    0   -0.1724144220E+01   -0.7818195224E+00   -0.1857698560E+01    0.2652349710E+01    0.1856311865E-03    0    0
  -11    1   11   11    0    0   -0.2904024696E+02   -0.8030686378E+01   -0.3504858017E+02    0.4621937561E+02    0.5424923147E-03    0    0
   12    1   11   11    0    0   -0.1536536932E+01   -0.5407743454E+00   -0.1621567011E+01    0.2298447847E+01    0.4315837214E-04    0    0
</event>
<event>
   20 9999    1    0.9119999695E+02    0.7565275169E-02    0.1185000000E+00
   11   -1    0    0    0    0    0.0000000000E+00    0.0000000000E+00    0.8000000000E+02    0.8000000000E+02    0.5109988851E-03    0    0
  -11   -1    0    0    0    0    0.0000000000E+00    0.0000000000E+00   -0.8000000000E+02    0.8000000000E+02    0.5109988851E-03    0    0
  -24    2    1    2    0    0    0.8800799251E+00   -0.9718508720E+01    0.1110244846E+02    0.8088935089E+02    0.7952734375E+02    0    0
   24    2    1    2    0    0   -0.9229019284E+00    0.1005289745E+02   -0.1123793030E+02    0.7874519348E+02    0.7728260803E+02    0    0
   22    1    1    2    0    0    0.4297677800E-01   -0.3346257806E+00    0.1324969828E+00    0.3624594510E+00    0.0000000000E+00    0    0
   22    1    1    2    0    0   -0.1547656429E-03    0.2370366710E-03    0.2984804101E-02    0.2998198615E-02    0.0000000000E+00    0    0
   15    2    3    3    0    0   -0.3535384750E+02    0.1081738663E+02    0.1291038322E+02    0.3920135498E+02    0.1777029991E+01    0    0
  -16    1    3    3    0    0    0.3623392487E+02   -0.2053589439E+02   -0.1807935596E+01    0.4168799591E+02    0.0000000000E+00    0    0
   16    1    4    4    0    0   -0.1193275213E+01   -0.1813778877E+02    0.2617401505E+02    0.3186663437E+02    0.0000000000E+00    0    0
  -15    2    4    4    0    0    0.2703732550E+00    0.2819068527E+02   -0.3741194534E+02    0.4687855911E+02    0.1777029991E+01    0    0
   16    1    7    7    0    0   -0.5821367502E+00    0.2905954719E+00    0.3135920465E+00    0.7222664356E+00    0.2525779128E-03    0    0
  -24    2    7    7    0    0   -0.3477310181E+02    0.1052721691E+02    0.1259730053E+02    0.3848063278E+02    0.1440866590E+01    0    0
 -321    1   12   12    0    0   -0.1020904827E+02    0.2854337692E+01    0.3842517138E+01    0.1128629971E+02    0.4936670363E+00    0    0
 -211    1   12   12    0    0   -0.7066145420E+01    0.2037608385E+01    0.2368901253E+01    0.7727447033E+01    0.1395680606E+00    0    0
  211    1   12   12    0    0   -0.1506897068E+02    0.4738550186E+01    0.5616631508E+01    0.1676585388E+02    0.1395680308E+00    0    0
   22    1   12   12    0    0   -0.2429327726E+01    0.8968119025E+00    0.7693654895E+00    0.2701449394E+01    0.0000000000E+00    0    0
  -16    1   10   10    0    0    0.4440994263E+00    0.1010877228E+02   -0.1323890781E+02    0.1666292763E+02    0.4315837214E-04    0    0
   24    2   10   10    0    0   -0.1737155467E+00    0.1808302307E+02   -0.2417451096E+02    0.3021747780E+02    0.1289591074E+01    0    0
  321    1   18   18    0    0   -0.9135351330E-01    0.5009777069E+01   -0.7216201782E+01    0.8799061775E+01    0.4936669171E+00    0    0
  310    1   18   18    0    0   -0.8236210048E-01    0.1307324505E+02   -0.1695830727E+02    0.2141841316E+02    0.4977199733E+00    0    0
</event>
<event>
   12 9999    1    0.9119999695E+02    0.7565275169E-02    0.1185000000E+00
   11   -1    0    0    0    0    0.0000000000E+00    0.0000000000E+00    0.8000000000E+02    0.8000000000E+02    0.5109988851E-03    0    0
  -11   -1    0    0    0    0    0.0000000000E+00    0.0000000000E+00   -0.8000000000E+02    0.8000000000E+02    0.5109988851E-03    0    0
  -24    2    1    2    0    0    0.2275421143E+02    0.2431999969E+02   -0.1603653526E+02    0.8891677856E+02    0.8086907196E+02    0    0
   24    2    1    2    0    0   -0.2275421143E+02   -0.2431999969E+02    0.1603653526E+02    0.7108322144E+02    0.6071603775E+02    0    0
   15    2    3    3    0    0   -0.1731542206E+02   -0.1997341156E+02   -0.1190511513E+02    0.2904566383E+02    0.1777029991E+01    0    0
  -16    1    3    3    0    0    0.4006963348E+02    0.4429341125E+02   -0.4131420135E+01    0.5987111282E+02    0.0000000000E+00    0    0
   16    1    4    4    0    0   -0.3495441055E+02   -0.8225702047E+00    0.2510211754E+02    0.4304188156E+02    0.0000000000E+00    0    0
  -15    2    4    4    0    0    0.1220019913E+02   -0.2349742889E+02   -0.9065582275E+01    0.2804133797E+02    0.1777029991E+01    0    0
   16    1    5    5    0    0   -0.9977619171E+01   -0.1270339680E+02   -0.7651784420E+01    0.1787397385E+02    0.2990099892E-03    0    0
 -211    1    5    5    0    0   -0.7338485718E+01   -0.7270801067E+01   -0.4253800392E+01    0.1117283440E+02    0.1395676434E+00    0    0
  -16    1    8    8    0    0    0.6518781662E+01   -0.1430629349E+02   -0.5038654327E+01    0.1650916672E+02    0.3036460548E-03    0    0
  211    1    8    8    0    0    0.5681897640E+01   -0.9192060471E+01   -0.4027285099E+01    0.1153327560E+02    0.1395676285E+00    0    0
</event>
<event>
   19 9999    1    0.9119999695E+02    0.7565275169E-02    0.1185000000E+00
   11   -1    0    0    0    0    0.0000000000E+00    0.0000000000E+00    0.8000000000E+02    0.8000000000E+02    0.5109988851E-03    0    0
  -11   -1    0    0    0    0    0.0000000000E+00    0.0000000000E+00   -0.8000000000E+02    0.8000000000E+02    0.5109988851E-03    0    0
  -24    2    1    2    0    0    0.1116442919E+01    0.9483787537E+01   -0.1353043842E+02    0.8008008575E+02    0.7834895325E+02    0    0
   24    2    1    2    0    0   -0.8789483905E+00   -0.9515604019E+01    0.1291232014E+02    0.7925697327E+02    0.7761199188E+02    0    0
   22    1    1    2    0    0   -0.2374944985E+00    0.3181657568E-01    0.6181184053E+00    0.6629376411E+00    0.0000000000E+00    0    0
   15    2    3    3    0    0   -0.2084171486E+02    0.3672413254E+02    0.7989675999E+00    0.4227097321E+02    0.1777029991E+01    0    0
  -16    1    3    3    0    0    0.2195815849E+02   -0.2724034500E+02   -0.1432940674E+02    0.3780911255E+02    0.0000000000E+00    0    0
   16    1    4    4    0    0   -0.3588749313E+02    0.4035697460E+01   -0.6895112991E+01    0.3676604080E+02    0.0000000000E+00    0    0
  -15    2    4    4    0    0    0.2930591583E+02   -0.1149298763E+02    0.1659871674E+02    0.3563145065E+02    0.1777029991E+01    0    0
   22    1    4    4    0    0    0.5702628613E+01   -0.2058314323E+01    0.3208716154E+01    0.6859481335E+01    0.0000000000E+00    0    0
   16    1    6    6    0    0   -0.1460708141E+02    0.2655230331E+02    0.2563590109E+00    0.3030606079E+02    0.2114319796E-03    0    0
 -213    2    6    6    0    0   -0.6235454082E+01    0.1017327404E+02    0.5426400304E+00    0.1196657562E+02    0.7266846299E+00    0    0
 -211    1   12   12    0    0   -0.1433018684E+01    0.2592967033E+01   -0.1135471538E+00    0.2968062162E+01    0.1395679861E+00    0    0
  111    1   12   12    0    0   -0.4802436352E+01    0.7580309868E+01    0.6561871767E+00    0.8998516083E+01    0.1349645555E+00    0    0
  -16    1    9    9    0    0    0.7543781757E+01   -0.2909678221E+01    0.4147566795E+01    0.9087196350E+01    0.5079137045E-03    0    0
   24    2    9    9    0    0    0.2176332664E+02   -0.8583775520E+01    0.1245182419E+02    0.2654570198E+02    0.1517572761E+01    0    0
  310    1   16   16    0    0    0.7343705654E+01   -0.3192121029E+01    0.4379289627E+01    0.9140324593E+01    0.4977200329E+00    0    0
  211    1   16   16    0    0    0.3088933229E+01   -0.8980327845E+00    0.1608166695E+01    0.3599117517E+01    0.1395679116E+00    0    0
  130    1   16   16    0    0    0.1133068752E+02   -0.4493621826E+01    0.6464368343E+01    0.1380626011E+02    0.4977199733E+00    0    0
</event>
<event>
   17 9999    1    0.9119999695E+02    0.7565275169E-02    0.1185000000E+00
   11   -1    0    0    0    0    0.0000000000E+00    0.0000000000E+00    0.8000000000E+02    0.8000000000E+02    0.5109988851E-03    0    0
  -11   -1    0    0    0    0    0.0000000000E+00    0.0000000000E+00   -0.8000000000E+02    0.8000000000E+02    0.5109988851E-03    0    0
  -24    2    1    2    0    0    0.9837768555E+01   -0.3862364769E+01    0.5835427761E+01    0.8123387909E+02    0.8033175659E+02    0    0
   24    2    1    2    0    0   -0.9836148262E+01    0.3865962029E+01   -0.5804768085E+01    0.7873518372E+02    0.7780641937E+02    0    0
   22    1    1    2    0    0   -0.1620437484E-02   -0.3597496543E-02   -0.2792473137E-01    0.2820209973E-01    0.0000000000E+00    0    0
   22    1    1    2    0    0    0.1802521723E-06    0.2494371643E-06   -0.2734770067E-02    0.2734770067E-02    0.0000000000E+00    0    0
   15    2    3    3    0    0   -0.8217759728E+00    0.3475399399E+02    0.1823772430E+02    0.3929742813E+02    0.1777029991E+01    0    0
  -16    1    3    3    0    0    0.1065954494E+02   -0.3861635590E+02   -0.1240229702E+02    0.4193645096E+02    0.0000000000E+00    0    0
   16    1    4    4    0    0   -0.1097632790E+02    0.3193943405E+02    0.2107649422E+02    0.3980987167E+02    0.0000000000E+00    0    0
  -15    2    4    4    0    0    0.1140179038E+01   -0.2807347298E+02   -0.2688126373E+02    0.3892531204E+02    0.1777029991E+01    0    0
   16    1    7    7    0    0   -0.4207080603E+00    0.6205116749E+01    0.3244338989E+01    0.7014713287E+01    0.4037816834E-03    0    0
  -24    2    7    7    0    0   -0.4011002481E+00    0.2855024338E+02    0.1499410343E+02    0.3228425980E+02    0.1474113226E+01    0    0
 -321    1   12   12    0    0   -0.4695954919E+00    0.8656058311E+01    0.4716957092E+01    0.9881359100E+01    0.4936670363E+00    0    0
  111    1   12   12    0    0   -0.5859510973E-01    0.2578382492E+01    0.1278125644E+01    0.2881546497E+01    0.1349640191E+00    0    0
  130    1   12   12    0    0    0.1270903945E+00    0.1731580353E+02    0.8999020576E+01    0.1952135468E+02    0.4977199733E+00    0    0
  -16    1   10   10    0    0   -0.3855219185E+00   -0.1194630718E+02   -0.1152287006E+02    0.1660239220E+02    0.4315837214E-04    0    0
  211    1   10   10    0    0    0.1525745869E+01   -0.1612827110E+02   -0.1535945225E+02    0.2232445526E+02    0.1395679712E+00    0    0
</event>
<event>
   19 9999    1    0.9119999695E+02    0.7565275169E-02    0.1185000000E+00
   11   -1    0    0    0    0    0.0000000000E+00    0.0000000000E+00    0.8000000000E+02    0.8000000000E+02    0.5109988851E-03    0    0
  -11   -1    0    0    0    0    0.0000000000E+00    0.0000000000E+00   -0.8000000000E+02    0.8000000000E+02    0.5109988851E-03    0    0
  -24    2    1    2    0    0    0.2327959061E+02   -0.8127033234E+01    0.3067570686E+02    0.6363923264E+02    0.5000965118E+02    0    0
   24    2    1    2    0    0   -0.2409642601E+02    0.8129117966E+01   -0.3384783936E+02    0.9246477509E+02    0.8220302582E+02    0    0
   22    1    1    2    0    0    0.8167595863E+00   -0.1965602860E-02    0.3486870766E+01    0.3581252337E+01    0.0000000000E+00    0    0
   22    1    1    2    0    0    0.5456300642E-04   -0.1033631124E-03   -0.2742267549E+00    0.2742267847E+00    0.0000000000E+00    0    0
   22    1    1    2    0    0    0.2040378786E-04   -0.1664865522E-04   -0.4051334783E-01    0.4051335528E-01    0.0000000000E+00    0    0
   15    2    3    3    0    0    0.3440497208E+02    0.7824054718E+01    0.1392936039E+02    0.3797502899E+02    0.1777029991E+01    0    0
  -16    1    3    3    0    0   -0.1112538052E+02   -0.1595108700E+02    0.1674634743E+02    0.2566420555E+02    0.0000000000E+00    0    0
   16    1    4    4    0    0   -0.1352359867E+02   -0.3583201599E+02   -0.2661977005E+02    0.4664154053E+02    0.0000000000E+00    0    0
  -15    2    4    4    0    0   -0.1057282734E+02    0.4396113205E+02   -0.7228067875E+01    0.4582323456E+02    0.1777029991E+01    0    0
   16    1    8    8    0    0    0.2236437321E+01    0.4383918047E+00    0.1118632555E+01    0.2538735390E+01    0.0000000000E+00    0    0
   11    1    8    8    0    0    0.1858529854E+02    0.4711590290E+01    0.6793386459E+01    0.2034115219E+02    0.6459353608E-03    0    0
  -12    1    8    8    0    0    0.1358459091E+02    0.2674380302E+01    0.6017889500E+01    0.1509663582E+02    0.1726334885E-03    0    0
  -16    1   11   11    0    0   -0.2120903730E+01    0.8522477150E+01   -0.1570656061E+01    0.8921760559E+01    0.2200653835E-03    0    0
   24    2   11   11    0    0   -0.8452340126E+01    0.3544038773E+02   -0.5657696247E+01    0.3690327835E+02    0.1542482376E+01    0    0
  310    1   16   16    0    0   -0.3434527636E+01    0.1548167324E+02   -0.2735915184E+01    0.1610003662E+02    0.4977202117E+00    0    0
  211    1   16   16    0    0   -0.1815109730E+01    0.6809830666E+01   -0.1230994105E+01    0.7155643940E+01    0.1395680457E+00    0    0
  310    1   16   16    0    0   -0.3202703238E+01    0.1314888573E+02   -0.1690787315E+01    0.1364760017E+02    0.4977200925E+00    0    0
</event>
<event>
   21 9999    1    0.9119999695E+02    0.7565275169E-02    0.1185000000E+00
   11   -1    0    0    0    0    0.0000000000E+00    0.0000000000E+00    0.8000000000E+02    0.8000000000E+02    0.5109988851E-03    0    0
  -11   -1    0    0    0    0    0.0000000000E+00    0.0000000000E+00   -0.8000000000E+02    0.8000000000E+02    0.5109988851E-03    0    0
  -24    2    1    2    0    0   -0.1500885677E+02   -0.1097458935E+02    0.4003237247E+01    0.8355616760E+02    0.8136276245E+02    0    0
   24    2    1    2    0    0    0.1499215221E+02    0.1093111324E+02   -0.4400459766E+01    0.7596827698E+02    0.7353612518E+02    0    0
   22    1    1    2    0    0    0.9633303271E-03    0.7269316702E-03    0.4227834344E+00    0.4227851629E+00    0.0000000000E+00    0    0
   22    1    1    2    0    0    0.1574172266E-01    0.4274953157E-01   -0.2591789700E-01    0.5241242051E-01    0.0000000000E+00    0    0
   22    1    1    2    0    0    0.9352238095E-07   -0.1189188552E-06    0.3569862456E-03    0.3569862747E-03    0.0000000000E+00    0    0
   15    2    3    3    0    0   -0.4566439819E+02    0.7211946487E+01   -0.5701155663E+01    0.4661448669E+02    0.1777029991E+01    0    0
  -16    1    3    3    0    0    0.3065554237E+02   -0.1818653679E+02    0.9704393387E+01    0.3694167709E+02    0.0000000000E+00    0    0
   16    1    4    4    0    0   -0.1298346329E+02   -0.1713005638E+02    0.2003318214E+02    0.2938260651E+02    0.0000000000E+00    0    0
  -15    2    4    4    0    0    0.2797561455E+02    0.2806116867E+02   -0.2443364143E+02    0.4658567429E+02    0.1777029991E+01    0    0
   16    1    8    8    0    0   -0.1957098842E+01    0.2635660172E+00   -0.2606916986E-01    0.1974938750E+01    0.4766998172E-03    0    0
*****    2    8    8    0    0   -0.4370909500E+02    0.6948664188E+01   -0.5675310612E+01    0.4464138412E+02    0.1369271398E+01    0    0
  111    1   13   13    0    0   -0.2143050575E+02    0.3156222343E+01   -0.3173694849E+01    0.2189335251E+02    0.1349632889E+00    0    0
  111    1   13   13    0    0   -0.1121099949E+02    0.2029202938E+01   -0.9573907852E+00    0.1143411446E+02    0.1349638999E+00    0    0
 -211    1   13   13    0    0   -0.1106759644E+02    0.1763239980E+01   -0.1544225931E+01    0.1131392193E+02    0.1395680010E+00    0    0
  -16    1   11   11    0    0    0.2665805578E+01    0.3067397833E+01   -0.2374331474E+01    0.4706686497E+01    0.3558930475E-03    0    0
   24    2   11   11    0    0    0.2531091118E+02    0.2499487686E+02   -0.2206027222E+02    0.4188082123E+02    0.1400527954E+01    0    0
  211    1   18   18    0    0    0.5939686775E+01    0.5531897068E+01   -0.4754808426E+01    0.9407945633E+01    0.1395679116E+00    0    0
  130    1   18   18    0    0    0.1438521862E+02    0.1451064110E+02   -0.1249365044E+02    0.2395479584E+02    0.4977200627E+00    0    0
  111    1   18   18    0    0    0.4986006737E+01    0.4952339172E+01   -0.4811814785E+01    0.8518080711E+01    0.1349640638E+00    0    0
</event>
<event>
   17 9999    1    0.9119999695E+02    0.7565275169E-02    0.1185000000E+00
   11   -1    0    0    0    0    0.0000000000E+00    0.0000000000E+00    0.8000000000E+02    0.8000000000E+02    0.5109988851E-03    0    0
  -11   -1    0    0    0    0    0.0000000000E+00    0.0000000000E+00   -0.8000000000E+02    0.8000000000E+02    0.5109988851E-03    0    0
  -24    2    1    2    0    0   -0.1324650288E+02   -0.6614744663E+01   -0.6460132077E-02    0.7976254272E+02    0.7837626648E+02    0    0
   24    2    1    2    0    0    0.1324650288E+02    0.6614744663E+01    0.6460132077E-02    0.8023745728E+02    0.7885952759E+02    0    0
   15    2    3    3    0    0   -0.7692839146E+01   -0.2495364380E+02    0.3268293762E+02    0.4187118530E+02    0.1777029991E+01    0    0
  -16    1    3    3    0    0   -0.5553663254E+01    0.1833889961E+02   -0.3268939590E+02    0.3789135742E+02    0.0000000000E+00    0    0
   16    1    4    4    0    0   -0.9255788803E+01   -0.2756316566E+02    0.1936486435E+02    0.3493416214E+02    0.0000000000E+00    0    0
  -15    2    4    4    0    0    0.2250229073E+02    0.3417790985E+02   -0.1935840416E+02    0.4530329132E+02    0.1777029991E+01    0    0
   16    1    5    5    0    0   -0.5988858342E+00   -0.2836282730E+01    0.3846141338E+01    0.4816218853E+01    0.4825252836E-04    0    0
  -24    2    5    5    0    0   -0.7094255924E+01   -0.2211834335E+02    0.2883808136E+02    0.3705661392E+02    0.1417124629E+01    0    0
 -211    1   10   10    0    0   -0.3787716866E+01   -0.1159251308E+02    0.1459037876E+02    0.1901661873E+02    0.1395680606E+00    0    0
  310    1   10   10    0    0   -0.2068562746E+01   -0.5867170811E+01    0.7858363628E+01    0.1003515053E+02    0.4977200627E+00    0    0
  111    1   10   10    0    0   -0.1237975836E+01   -0.4658657551E+01    0.6389336586E+01    0.8004842758E+01    0.1349639744E+00    0    0
  -16    1    8    8    0    0    0.1511858225E+01    0.1721033454E+01   -0.8775820136E+00    0.2453125000E+01    0.1779465238E-03    0    0
  323    2    8    8    0    0    0.2099131966E+02    0.3245822525E+02   -0.1848158455E+02    0.4285195160E+02    0.7410070300E+00    0    0
  211    1   15   15    0    0    0.4196801662E+01    0.6219490051E+01   -0.3559587955E+01    0.8305742264E+01    0.1395679861E+00    0    0
  130    1   15   15    0    0    0.1679451561E+02    0.2623873138E+02   -0.1492199516E+02    0.3454620743E+02    0.4977200627E+00    0    0
</event>
<event>
   20 9999    1    0.9119999695E+02    0.7565275169E-02    0.1185000000E+00
   11   -1    0    0    0    0    0.0000000000E+00    0.0000000000E+00    0.8000000000E+02    0.8000000000E+02    0.5109988851E-03    0    0
  -11   -1    0    0    0    0    0.0000000000E+00    0.0000000000E+00   -0.8000000000E+02    0.8000000000E+02    0.5109988851E-03    0    0
  -24    2    1    2    0    0   -0.5206315994E+01   -0.9332116127E+01    0.1487190056E+02    0.7431835175E+02    0.7202672577E+02    0    0
   24    2    1    2    0    0    0.5206028938E+01    0.9334162712E+01   -0.1641214752E+02    0.8352529144E+02    0.8119659424E+02    0    0
   22    1    1    2    0    0    0.2937380923E-03   -0.2066798741E-02    0.1848300934E+01    0.1848302126E+01    0.0000000000E+00    0    0
   22    1    1    2    0    0   -0.6718822078E-05    0.2031708755E-04   -0.3080544770E+00    0.3080544770E+00    0.0000000000E+00    0    0
   15    2    3    3    0    0   -0.1269492626E+02   -0.2875236130E+02   -0.1736026001E+02    0.3594990921E+02    0.1777029991E+01    0    0
  -16    1    3    3    0    0    0.7488609791E+01    0.1942024422E+02    0.3223216248E+02    0.3836844254E+02    0.0000000000E+00    0    0
   16    1    4    4    0    0   -0.2080114937E+02    0.3788675690E+02   -0.9409248352E+01    0.4423378754E+02    0.0000000000E+00    0    0
  -15    2    4    4    0    0    0.2600717735E+02   -0.2855259323E+02   -0.7002898693E+01    0.3929150391E+02    0.1777029991E+01    0    0
   16    1    7    7    0    0   -0.8778899312E+00   -0.1578845143E+01   -0.1209706545E+01    0.2174128056E+01    0.1831054688E-03    0    0
  -24    2    7    7    0    0   -0.1181753540E+02   -0.2717464828E+02   -0.1615123749E+02    0.3377719498E+02    0.1385935903E+01    0    0
 -321    1   12   12    0    0   -0.4101433277E+01   -0.9350805283E+01   -0.5783771515E+01    0.1174542618E+02    0.4936670363E+00    0    0
  111    1   12   12    0    0   -0.4220879555E+01   -0.9930495262E+01   -0.5910871506E+01    0.1230394936E+02    0.1349639893E+00    0    0
  130    1   12   12    0    0   -0.3495223761E+01   -0.7893348694E+01   -0.4456595898E+01    0.9727821350E+01    0.4977199435E+00    0    0
  -16    1   10   10    0    0    0.5301372528E+01   -0.5590063095E+01   -0.1672149181E+01    0.7883491993E+01    0.3229676804E-03    0    0
   24    2   10   10    0    0    0.2070682716E+02   -0.2296365356E+02   -0.5331025124E+01    0.3140955925E+02    0.1427729249E+01    0    0
  221    1   17   17    0    0    0.9438991547E+01   -0.1060785675E+02   -0.2756664753E+01    0.1447486019E+02    0.5487998724E+00    0    0
  211    1   17   17    0    0    0.1067132950E+02   -0.1180906487E+02   -0.2418485403E+01    0.1609968376E+02    0.1395679563E+00    0    0
  111    1   17   17    0    0    0.5965096951E+00   -0.5467358828E+00   -0.1558755636E+00    0.8350188136E+00    0.1349640042E+00    0    0
</event>
<event>
   21 9999    1    0.9119999695E+02    0.7565275169E-02    0.1185000000E+00
   11   -1    0    0    0    0    0.0000000000E+00    0.0000000000E+00    0.8000000000E+02    0.8000000000E+02    0.5109988851E-03    0    0
  -11   -1    0    0    0    0    0.0000000000E+00    0.0000000000E+00   -0.8000000000E+02    0.8000000000E+02    0.5109988851E-03    0    0
  -24    2    1    2    0    0   -0.2324384499E+02    0.9206186295E+01   -0.3045116186E+01    0.8003643799E+02    0.7597057343E+02    0    0
   24    2    1    2    0    0    0.2355745697E+02   -0.9635811806E+01    0.1936717510E+01    0.7873413849E+02    0.7448162079E+02    0    0
   22    1    1    2    0    0   -0.3136119545E+00    0.4296250343E+00    0.1108398676E+01    0.1229421735E+01    0.0000000000E+00    0    0
   15    2    3    3    0    0   -0.4972618866E+02    0.1020857334E+02    0.7822897434E+01    0.5139323425E+02    0.1777029991E+01    0    0
  -16    1    3    3    0    0    0.2648234558E+02   -0.1002387047E+01   -0.1086801338E+02    0.2864320374E+02    0.0000000000E+00    0    0
   16    1    4    4    0    0    0.2284943581E+02   -0.2299389458E+02    0.3214295959E+02    0.4565069199E+02    0.0000000000E+00    0    0
  -15    2    4    4    0    0    0.7080203295E+00    0.1335808277E+02   -0.3020624161E+02    0.3308344650E+02    0.1777029991E+01    0    0
   16    1    6    6    0    0   -0.1290980721E+02    0.2229751587E+01    0.1659699321E+01    0.1320566177E+02    0.1726334885E-03    0    0
*****    2    6    6    0    0   -0.3681834030E+02    0.7979224205E+01    0.6163506508E+01    0.3818959427E+02    0.1094603181E+01    0    0
  111    1   11   11    0    0   -0.1001580524E+02    0.2176009893E+01    0.1950589776E+01    0.1043428898E+02    0.1349640042E+00    0    0
  111    1   11   11    0    0   -0.1181168175E+02    0.2534371853E+01    0.2202902555E+01    0.1228046608E+02    0.1349638999E+00    0    0
 -211    1   11   11    0    0   -0.1499085426E+02    0.3268842697E+01    0.2010014057E+01    0.1547484016E+02    0.1395681202E+00    0    0
  -16    1    9    9    0    0   -0.1451045871E+00    0.1411270618E+01   -0.2862378836E+01    0.3194675446E+01    0.1057159898E-03    0    0
   24    2    9    9    0    0    0.8531528115E+00    0.1194733810E+02   -0.2734505272E+02    0.2989007568E+02    0.1482549071E+01    0    0
  211    1   16   16    0    0    0.2332254052E+00    0.4447677135E+01   -0.1010817337E+02    0.1104675865E+02    0.1395680308E+00    0    0
  211    1   16   16    0    0    0.2135903090E+00    0.1951250553E+01   -0.4696140766E+01    0.5091779232E+01    0.1395680010E+00    0    0
  211    1   16   16    0    0    0.1330284867E-02    0.1765340328E+01   -0.4781013489E+01    0.5098430634E+01    0.1395679414E+00    0    0
 -211    1   16   16    0    0    0.2202634513E+00    0.2006282568E+01   -0.4485659122E+01    0.4920803070E+01    0.1395680010E+00    0    0
 -211    1   16   16    0    0    0.1847433150E+00    0.1776787877E+01   -0.3274066210E+01    0.3732304096E+01    0.1395680308E+00    0    0
</event>
<event>
   20 9999    1    0.9119999695E+02    0.7565275169E-02    0.1185000000E+00
   11   -1    0    0    0    0    0.0000000000E+00    0.0000000000E+00    0.8000000000E+02    0.8000000000E+02    0.5109988851E-03    0    0
  -11   -1    0    0    0    0    0.0000000000E+00    0.0000000000E+00   -0.8000000000E+02    0.8000000000E+02    0.5109988851E-03    0    0
  -24    2    1    2    0    0    0.8648069382E+01   -0.1876193237E+02    0.1567979336E+01    0.7625236511E+02    0.7338368988E+02    0    0
   24    2    1    2    0    0   -0.8648069382E+01    0.1876193237E+02   -0.1567979336E+01    0.8374763489E+02    0.8114437103E+02    0    0
   15    2    3    3    0    0   -0.2401737785E+02   -0.1662374115E+02   -0.2140853119E+02    0.3625832748E+02    0.1777029991E+01    0    0
  -16    1    3    3    0    0    0.3266544724E+02   -0.2138190746E+01    0.2297651100E+02    0.3999404144E+02    0.0000000000E+00    0    0
   16    1    4    4    0    0   -0.1059723473E+02    0.4172402191E+02    0.2399537277E+02    0.4928461456E+02    0.0000000000E+00    0    0
  -15    2    4    4    0    0    0.1949165940E+01   -0.2296209145E+02   -0.2556335068E+02    0.3446302032E+02    0.1777029991E+01    0    0
   16    1    5    5    0    0   -0.6594134331E+01   -0.4576976776E+01   -0.5287147999E+01    0.9611724854E+01    0.3662109375E-03    0    0
  -24    2    5    5    0    0   -0.1742418671E+02   -0.1204741859E+02   -0.1612222481E+02    0.2664802742E+02    0.1203584909E+01    0    0
 -211    1   10   10    0    0   -0.8033300400E+01   -0.5253944397E+01   -0.7413197517E+01    0.1212900734E+02    0.1395678520E+00    0    0
  111    1   10   10    0    0   -0.3613074780E+01   -0.2828414917E+01   -0.3856451511E+01    0.5995387554E+01    0.1349641681E+00    0    0
   22    1   10   10    0    0   -0.5777813911E+01   -0.3965059519E+01   -0.4852577209E+01    0.8523633957E+01    0.6103515625E-04    0    0
  -16    1    8    8    0    0   -0.2756210603E-01   -0.2534398735E+00   -0.3899146616E+00    0.4658595026E+00    0.4562352551E-03    0    0
   24    2    8    8    0    0    0.1976804733E+01   -0.2270955467E+02   -0.2517444229E+02    0.3399851608E+02    0.1585822225E+01    0    0
  211    1   15   15    0    0    0.6054791808E+00   -0.8335377693E+01   -0.8562955856E+01    0.1196615410E+02    0.1395684332E+00    0    0
  211    1   15   15    0    0    0.5196282268E+00   -0.3212887049E+01   -0.3604080677E+01    0.4858140945E+01    0.1395680308E+00    0    0
 -211    1   15   15    0    0    0.3262508810E+00   -0.2604742527E+01   -0.3193734884E+01    0.4136489391E+01    0.1395681202E+00    0    0
  111    1   15   15    0    0    0.1837395430E+00   -0.4803715229E+01   -0.5684395313E+01    0.7445804596E+01    0.1349640340E+00    0    0
  111    1   15   15    0    0    0.3417070508E+00   -0.3752834082E+01   -0.4129277706E+01    0.5591929436E+01    0.1349640936E+00    0    0
</event>
<event>
   17 9999    1    0.9119999695E+02    0.7565275169E-02    0.1185000000E+00
   11   -1    0    0    0    0    0.0000000000E+00    0.0000000000E+00    0.8000000000E+02    0.8000000000E+02    0.5109988851E-03    0    0
  -11   -1    0    0    0    0    0.0000000000E+00    0.0000000000E+00   -0.8000000000E+02    0.8000000000E+02    0.5109988851E-03    0    0
  -24    2    1    2    0    0    0.2084323645E+01    0.9455593109E+01    0.9228731155E+01    0.8311734772E+02    0.8203396606E+02    0    0
   24    2    1    2    0    0   -0.2084323645E+01   -0.9455593109E+01   -0.9228731155E+01    0.7688265228E+02    0.7571010590E+02    0    0
   15    2    3    3    0    0    0.5633212328E+00    0.4586567307E+02    0.1880563378E+01    0.4594204712E+02    0.1777029991E+01    0    0
  -16    1    3    3    0    0    0.1521002412E+01   -0.3641007996E+02    0.7348167896E+01    0.3717530060E+02    0.0000000000E+00    0    0
   16    1    4    4    0    0    0.2266829252E+01    0.2063971710E+02    0.2404678726E+02    0.3177081108E+02    0.0000000000E+00    0    0
  -15    2    4    4    0    0   -0.4351152897E+01   -0.3009531212E+02   -0.3327552032E+02    0.4511184311E+02    0.1777029991E+01    0    0
   16    1    5    5    0    0   -0.8201587200E-01    0.2072595358E+01    0.3229677379E+00    0.2099210978E+01    0.1057159898E-03    0    0
  -24    2    5    5    0    0    0.6453592777E+00    0.4379488373E+02    0.1557669640E+01    0.4384464264E+02    0.1232158542E+01    0    0
 -211    1   10   10    0    0    0.4148041010E+00    0.1352005386E+02    0.4307267964E+00    0.1353399181E+02    0.1395679861E+00    0    0
 -211    1   10   10    0    0    0.2898498178E+00    0.1300281429E+02    0.5823142529E+00    0.1301982212E+02    0.1395680308E+00    0    0
 -211    1   10   10    0    0   -0.6191028655E-01    0.3644917488E+01    0.4737609997E-01    0.3648421526E+01    0.1395680159E+00    0    0
  211    1   10   10    0    0    0.1346923709E+00    0.4867384911E+01    0.1360600889E+00    0.4873147964E+01    0.1395680010E+00    0    0
  211    1   10   10    0    0   -0.1320766658E+00    0.8759712219E+01    0.3611924648E+00    0.8769261360E+01    0.1395680457E+00    0    0
  -16    1    8    8    0    0   -0.2531213760E+01   -0.2140914726E+02   -0.2440600777E+02    0.3256396484E+02    0.2441406250E-03    0    0
  211    1    8    8    0    0   -0.1820110679E+01   -0.8687350273E+01   -0.8870822906E+01    0.1254965496E+02    0.1395681798E+00    0    0
</event>
<event>
   17 9999    1    0.9119999695E+02    0.7565275169E-02    0.1185000000E+00
   11   -1    0    0    0    0    0.0000000000E+00    0.0000000000E+00    0.8000000000E+02    0.8000000000E+02    0.5109988851E-03    0    0
  -11   -1    0    0    0    0    0.0000000000E+00    0.0000000000E+00   -0.8000000000E+02    0.8000000000E+02    0.5109988851E-03    0    0
  -24    2    1    2    0    0   -0.3708662987E+01   -0.1306243992E+02   -0.5712258339E+01    0.8176355743E+02    0.8042553711E+02    0    0
   24    2    1    2    0    0    0.3708662987E+01    0.1306243992E+02    0.5712258339E+01    0.7823644257E+02    0.7683703613E+02    0    0
   15    2    3    3    0    0   -0.2513675690E+02   -0.3321527863E+02    0.1656627274E+02    0.4486324310E+02    0.1777029991E+01    0    0
  -16    1    3    3    0    0    0.2142809296E+02    0.2015283775E+02   -0.2227853203E+02    0.3690031052E+02    0.0000000000E+00    0    0
   16    1    4    4    0    0   -0.1150380611E+02   -0.2964326668E+02   -0.3343240976E+01    0.3197245789E+02    0.0000000000E+00    0    0
  -15    2    4    4    0    0    0.1521246910E+02    0.4270570755E+02    0.9055499077E+01    0.4626398849E+02    0.1777029991E+01    0    0
   16    1    5    5    0    0   -0.7196466923E+01   -0.8875456810E+01    0.4543939590E+01    0.1229675770E+02    0.5353231682E-03    0    0
  -24    2    5    5    0    0   -0.1794127846E+02   -0.2434112740E+02    0.1202298450E+02    0.3256824875E+02    0.1326148391E+01    0    0
 -321    1   10   10    0    0   -0.9719415665E+01   -0.1274354744E+02    0.6250278473E+01    0.1720972824E+02    0.4936669469E+00    0    0
  111    1   10   10    0    0   -0.1573734760E+01   -0.2366746902E+01    0.1108425856E+01    0.3053678989E+01    0.1349641383E+00    0    0
  130    1   10   10    0    0   -0.6648128033E+01   -0.9230832100E+01    0.4664279938E+01    0.1230484009E+02    0.4977199733E+00    0    0
  -16    1    8    8    0    0    0.2427822113E+01    0.6093873024E+01    0.1814432979E+01    0.6806010246E+01    0.1726334885E-03    0    0
  323    2    8    8    0    0    0.1278524494E+02    0.3661351395E+02    0.7241422653E+01    0.3945979691E+02    0.7908738256E+00    0    0
  111    1   15   15    0    0    0.3600302935E+01    0.1068704033E+02    0.1930117607E+01    0.1144196606E+02    0.1349639595E+00    0    0
  321    1   15   15    0    0    0.9184942245E+01    0.2592647362E+02    0.5311305046E+01    0.2801783180E+02    0.4936670065E+00    0    0
</event>
<event>
   18 9999    1    0.9119999695E+02    0.7565275169E-02    0.1185000000E+00
   11   -1    0    0    0    0    0.0000000000E+00    0.0000000000E+00    0.8000000000E+02    0.8000000000E+02    0.5109988851E-03    0    0
  -11   -1    0    0    0    0    0.0000000000E+00    0.0000000000E+00   -0.8000000000E+02    0.8000000000E+02    0.5109988851E-03    0    0
  -24    2    1    2    0    0    0.7716237068E+01   -0.2551785088E+02   -0.2422884560E+02    0.7219947815E+02    0.6257017136E+02    0    0
   24    2    1    2    0    0   -0.7716237068E+01    0.2551785088E+02    0.2422884560E+02    0.8780052185E+02    0.8006993103E+02    0    0
   15    2    3    3    0    0   -0.5836561680E+01   -0.1105138779E+02    0.2004591942E+02    0.2368956184E+02    0.1777029991E+01    0    0
  -16    1    3    3    0    0    0.1355279922E+02   -0.1446646309E+02   -0.4427476501E+02    0.4850991440E+02    0.0000000000E+00    0    0
   16    1    4    4    0    0    0.2018416023E+02   -0.3169288874E+01    0.3986848450E+02    0.4479889297E+02    0.0000000000E+00    0    0
  -15    2    4    4    0    0   -0.2790039635E+02    0.2868713951E+02   -0.1563963985E+02    0.4300163269E+02    0.1777029991E+01    0    0
   16    1    5    5    0    0   -0.1796743274E+01   -0.3345299482E+01    0.7595095634E+01    0.8491454124E+01    0.1220703125E-03    0    0
 -213    2    5    5    0    0   -0.4040048122E+01   -0.7706522942E+01    0.1245161247E+02    0.1519904041E+02    0.5056427121E+00    0    0
 -211    1   10   10    0    0   -0.1013767481E+01   -0.1633265138E+01    0.2882592678E+01    0.3467578411E+01    0.1395680159E+00    0    0
  111    1   10   10    0    0   -0.3026280642E+01   -0.6073257923E+01    0.9569020271E+01    0.1173146152E+02    0.1349636763E+00    0    0
  -16    1    8    8    0    0   -0.1779868126E+01    0.2140546322E+01   -0.9063086510E+00    0.2927672148E+01    0.4844515352E-03    0    0
   24    2    8    8    0    0   -0.2612162590E+02    0.2654771996E+02   -0.1473394680E+02    0.4007564926E+02    0.1359303832E+01    0    0
  211    1   14   14    0    0   -0.2523005962E+01    0.2417739630E+01   -0.1248299718E+01    0.3713321447E+01    0.1395680606E+00    0    0
  211    1   14   14    0    0   -0.1103564358E+02    0.1096681404E+02   -0.6526402950E+01    0.1687216187E+02    0.1395687610E+00    0    0
 -211    1   14   14    0    0   -0.6395406723E+01    0.6392796516E+01   -0.3610501528E+01    0.9737775803E+01    0.1395680606E+00    0    0
  111    1   14   14    0    0   -0.6167568207E+01    0.6770368576E+01   -0.3348741055E+01    0.9752388000E+01    0.1349637359E+00    0    0
</event>
<event>
   19 9999    1    0.9119999695E+02    0.7565275169E-02    0.1185000000E+00
   11   -1    0    0    0    0    0.0000000000E+00    0.0000000000E+00    0.8000000000E+02    0.8000000000E+02    0.5109988851E-03    0    0
  -11   -1    0    0    0    0    0.0000000000E+00    0.0000000000E+00   -0.8000000000E+02    0.8000000000E+02    0.5109988851E-03    0    0
  -24    2    1    2    0    0   -0.1480827332E+02    0.6465945244E+01    0.1312165499E+01    0.8127089691E+02    0.7963757324E+02    0    0
   24    2    1    2    0    0    0.1480827332E+02   -0.6465945244E+01   -0.1312165499E+01    0.7872910309E+02    0.7704191589E+02    0    0
   15    2    3    3    0    0    0.2897102737E+02   -0.1431288147E+02   -0.3601011515E+01    0.3256230927E+02    0.1777029991E+01    0    0
  -16    1    3    3    0    0   -0.4377930069E+02    0.2077882576E+02    0.4913177013E+01    0.4870858383E+02    0.0000000000E+00    0    0
   16    1    4    4    0    0    0.3438319397E+02   -0.3887522697E+01   -0.2867519188E+02    0.4493977737E+02    0.0000000000E+00    0    0
  -15    2    4    4    0    0   -0.1957491875E+02   -0.2578422785E+01    0.2736302757E+02    0.3378932953E+02    0.1777029991E+01    0    0
   16    1    5    5    0    0    0.7749566078E+01   -0.3842664719E+01   -0.1077841997E+01    0.8716856956E+01    0.5355813191E-03    0    0
  -24    2    5    5    0    0    0.2122259903E+02   -0.1047077942E+02   -0.2523310900E+01    0.2384673500E+02    0.1504553437E+01    0    0
  221    1   10   10    0    0    0.7906746864E+01   -0.4212878227E+01   -0.7060887814E+00    0.9003595352E+01    0.5487998128E+00    0    0
 -211    1   10   10    0    0    0.6177019596E+01   -0.3278946400E+01   -0.8347745538E+00    0.7044386864E+01    0.1395679265E+00    0    0
  111    1   10   10    0    0    0.7138838291E+01   -0.2978956699E+01   -0.9824483395E+00    0.7798757076E+01    0.1349640042E+00    0    0
  -16    1    8    8    0    0   -0.3508258343E+01   -0.5681715608E+00    0.4341040611E+01    0.5610287666E+01    0.3229676804E-03    0    0
   24    2    8    8    0    0   -0.1606743050E+02   -0.2010352612E+01    0.2302306366E+02    0.2818037224E+02    0.1366765022E+01    0    0
  211    1   15   15    0    0   -0.3049880981E+01   -0.4362027049E+00    0.3929904461E+01    0.4995565414E+01    0.1395677924E+00    0    0
  211    1   15   15    0    0   -0.1547000408E+01   -0.9001816809E-01    0.2337499857E+01    0.2807970524E+01    0.1395687014E+00    0    0
 -211    1   15   15    0    0   -0.1966296673E+01   -0.3740262985E+00    0.2473753452E+01    0.3185145855E+01    0.1395678073E+00    0    0
  111    1   15   15    0    0   -0.9504253387E+01   -0.1110105515E+01    0.1428190613E+02    0.1719169044E+02    0.1349635124E+00    0    0
</event>
<event>
   18 9999    1    0.9119999695E+02    0.7565275169E-02    0.1185000000E+00
   11   -1    0    0    0    0    0.0000000000E+00    0.0000000000E+00    0.8000000000E+02    0.8000000000E+02    0.5109988851E-03    0    0
  -11   -1    0    0    0    0    0.0000000000E+00    0.0000000000E+00   -0.8000000000E+02    0.8000000000E+02    0.5109988851E-03    0    0
  -24    2    1    2    0    0    0.4178307533E+01   -0.4701538086E+01   -0.1095355749E+01    0.8010832214E+02    0.7985349274E+02    0    0
   24    2    1    2    0    0   -0.4178285122E+01    0.4701426983E+01    0.1095635891E+01    0.7989138031E+02    0.7963585663E+02    0    0
   22    1    1    2    0    0   -0.2256150037E-04    0.1109175209E-03   -0.2801185765E-03    0.3021227312E-03    0.0000000000E+00    0    0
   15    2    3    3    0    0   -0.1780972290E+02    0.1055633831E+02    0.3162243652E+02    0.3783858871E+02    0.1777029991E+01    0    0
  -16    1    3    3    0    0    0.2198803139E+02   -0.1525787640E+02   -0.3271779251E+02    0.4226973343E+02    0.0000000000E+00    0    0
   16    1    4    4    0    0   -0.2237564659E+02   -0.1376273918E+02    0.3076305389E+02    0.4045303345E+02    0.0000000000E+00    0    0
  -15    2    4    4    0    0    0.1819736099E+02    0.1846416664E+02   -0.2966741753E+02    0.3943834305E+02    0.1777029991E+01    0    0
   16    1    6    6    0    0   -0.3345555782E+01    0.2294046640E+01    0.7365212917E+01    0.8408433914E+01    0.2990099892E-03    0    0
 -321    1    6    6    0    0   -0.1446486855E+02    0.8262707710E+01    0.2425847054E+02    0.2943164635E+02    0.4936670661E+00    0    0
  -16    1    9    9    0    0    0.4371347651E-01    0.6824994832E-01   -0.7702932507E-01    0.1118147746E+00    0.3210527357E-03    0    0
   24    2    9    9    0    0    0.1815436363E+02    0.1839664268E+02   -0.2959155655E+02    0.3932807922E+02    0.1737906456E+01    0    0
  211    1   13   13    0    0    0.1089451909E+01    0.7925570607E+00   -0.1696348548E+01    0.2170744181E+01    0.1395679414E+00    0    0
  211    1   13   13    0    0    0.2692426920E+01    0.2852264166E+01   -0.4491879940E+01    0.5964984417E+01    0.1395681053E+00    0    0
 -211    1   13   13    0    0    0.1167773366E+01    0.1068221092E+01   -0.1873242617E+01    0.2456279278E+01    0.1395679563E+00    0    0
  111    1   13   13    0    0    0.1155328274E+02    0.1202887058E+02   -0.1919496346E+02    0.2542905617E+02    0.1349641085E+00    0    0
  111    1   13   13    0    0    0.1651428580E+01    0.1654729128E+01   -0.2335119486E+01    0.3307014227E+01    0.1349638253E+00    0    0
</event>
<event>
   17 9999    1    0.9119999695E+02    0.7565275169E-02    0.1185000000E+00
   11   -1    0    0    0    0    0.0000000000E+00    0.0000000000E+00    0.8000000000E+02    0.8000000000E+02    0.5109988851E-03    0    0
  -11   -1    0    0    0    0    0.0000000000E+00    0.0000000000E+00   -0.8000000000E+02    0.8000000000E+02    0.5109988851E-03    0    0
  -24    2    1    2    0    0    0.2357920074E+02   -0.1122761822E+02    0.2698565483E+02    0.9024150848E+02    0.8205648041E+02    0    0
   24    2    1    2    0    0   -0.2357920074E+02    0.1122761822E+02   -0.2698565483E+02    0.6975849152E+02    0.5878761292E+02    0    0
   15    2    3    3    0    0   -0.6868454456E+01   -0.1710227203E+02    0.4888834381E+02    0.5227706146E+02    0.1777029991E+01    0    0
  -16    1    3    3    0    0    0.3044765663E+02    0.5874654770E+01   -0.2190268707E+02    0.3796444321E+02    0.0000000000E+00    0    0
   16    1    4    4    0    0   -0.3831663895E+02    0.1327065372E+02   -0.1968784094E+01    0.4059742737E+02    0.0000000000E+00    0    0
  -15    2    4    4    0    0    0.1473743629E+02   -0.2043035746E+01   -0.2501687050E+02    0.2916106415E+02    0.1777029991E+01    0    0
   16    1    5    5    0    0   -0.3476836443E+01   -0.8747868538E+01    0.2286204720E+02    0.2472421455E+02    0.2990099892E-03    0    0
 -213    2    5    5    0    0   -0.3391888618E+01   -0.8355076790E+01    0.2602821922E+02    0.2755490494E+02    0.7016910911E+00    0    0
 -211    1   10   10    0    0   -0.7170013189E+00   -0.1522154808E+01    0.4236419201E+01    0.4560457706E+01    0.1395680457E+00    0    0
  111    1   10   10    0    0   -0.2674887896E+01   -0.6832923412E+01    0.2179180527E+02    0.2299445152E+02    0.1349642873E+00    0    0
  -16    1    8    8    0    0    0.2366148531E+00   -0.1021914855E+00   -0.3240689039E+00    0.4140661955E+00    0.6908710347E-03    0    0
   24    2    8    8    0    0    0.1450140095E+02   -0.1940924644E+01   -0.2469378471E+02    0.2874814415E+02    0.1617088318E+01    0    0
  221    1   14   14    0    0    0.3675252199E+01   -0.5274927020E+00   -0.5649661541E+01    0.6782742023E+01    0.5488002300E+00    0    0
  211    1   14   14    0    0    0.4593563080E+01   -0.3764736950E+00   -0.7478369236E+01    0.8785672188E+01    0.1395679116E+00    0    0
  111    1   14   14    0    0    0.6232585907E+01   -0.1036958218E+01   -0.1156575489E+02    0.1317973137E+02    0.1349638999E+00    0    0
</event>
<event>
   18 9999    1    0.9119999695E+02    0.7565275169E-02    0.1185000000E+00
   11   -1    0    0    0    0    0.0000000000E+00    0.0000000000E+00    0.8000000000E+02    0.8000000000E+02    0.5109988851E-03    0    0
  -11   -1    0    0    0    0    0.0000000000E+00    0.0000000000E+00   -0.8000000000E+02    0.8000000000E+02    0.5109988851E-03    0    0
  -24    2    1    2    0    0   -0.6485270023E+01   -0.3350001097E+01    0.5711353779E+01    0.7863230133E+02    0.7808416748E+02    0    0
   24    2    1    2    0    0    0.6485270023E+01    0.3350001097E+01   -0.5711353779E+01    0.8136769867E+02    0.8083811951E+02    0    0
   15    2    3    3    0    0    0.2299128056E+01    0.5048074245E+01    0.4094727325E+02    0.4135947418E+02    0.1777029991E+01    0    0
  -16    1    3    3    0    0   -0.8784398079E+01   -0.8398075104E+01   -0.3523591995E+02    0.3727282333E+02    0.0000000000E+00    0    0
   16    1    4    4    0    0   -0.1936837196E+02    0.1006125069E+02    0.2977441025E+02    0.3691717911E+02    0.0000000000E+00    0    0
  -15    2    4    4    0    0    0.2585364151E+02   -0.6711249352E+01   -0.3548576355E+02    0.4445052338E+02    0.1777029991E+01    0    0
   16    1    5    5    0    0    0.5567418933E+00    0.7331774235E+00    0.4217182159E+01    0.4316495895E+01    0.5593964597E-03    0    0
*****    2    5    5    0    0    0.1742476463E+01    0.4315094948E+01    0.3673170090E+02    0.3704460526E+02    0.1195221186E+01    0    0
 -211    1   10   10    0    0    0.9320752025E+00    0.2576557875E+01    0.2086059380E+02    0.2104022980E+02    0.1395680904E+00    0    0
 -211    1   10   10    0    0    0.6023727655E+00    0.4957416654E+00    0.6315134048E+01    0.6364668846E+01    0.1395680755E+00    0    0
  211    1   10   10    0    0    0.2080287039E+00    0.1242795944E+01    0.9555978775E+01    0.9639710426E+01    0.1395680457E+00    0    0
  -16    1    8    8    0    0    0.6717309475E+01   -0.1237453580E+01   -0.8857849121E+01    0.1118548298E+02    0.4239637346E-03    0    0
   24    2    8    8    0    0    0.1913734818E+02   -0.5474060059E+01   -0.2662931061E+02    0.3326678848E+02    0.1164268851E+01    0    0
  211    1   15   15    0    0    0.8314096451E+01   -0.2154011965E+01   -0.1160562706E+02    0.1443862915E+02    0.1395680606E+00    0    0
  111    1   15   15    0    0    0.1974359512E+01   -0.8056884408E+00   -0.2494645357E+01    0.3284615517E+01    0.1349641681E+00    0    0
   22    1   15   15    0    0    0.8848892212E+01   -0.2514358997E+01   -0.1252903748E+02    0.1554354095E+02    0.1726334885E-03    0    0
</event>
<event>
   20 9999    1    0.9119999695E+02    0.7565275169E-02    0.1185000000E+00
   11   -1    0    0    0    0    0.0000000000E+00    0.0000000000E+00    0.8000000000E+02    0.8000000000E+02    0.5109988851E-03    0    0
  -11   -1    0    0    0    0    0.0000000000E+00    0.0000000000E+00   -0.8000000000E+02    0.8000000000E+02    0.5109988851E-03    0    0
  -24    2    1    2    0    0   -0.3976105213E+01   -0.3349804401E+01   -0.2765411854E+01    0.8058192444E+02    0.8036646271E+02    0    0
   24    2    1    2    0    0    0.3984697580E+01    0.3347924948E+01    0.2744955301E+01    0.7939464569E+02    0.7917631531E+02    0    0
   22    1    1    2    0    0   -0.8592177182E-02    0.1879315707E-02    0.2106015757E-01    0.2282296121E-01    0.0000000000E+00    0    0
   22    1    1    2    0    0   -0.3912990820E-07    0.6781031203E-07   -0.6036406267E-03    0.6036406267E-03    0.0000000000E+00    0    0
   15    2    3    3    0    0    0.2630167580E+02    0.8159773827E+01    0.2551371956E+02    0.3758281326E+02    0.1777029991E+01    0    0
  -16    1    3    3    0    0   -0.3027778244E+02   -0.1150957775E+02   -0.2827913094E+02    0.4299911118E+02    0.0000000000E+00    0    0
   16    1    4    4    0    0   -0.1780338097E+02    0.3346913528E+02   -0.1138888550E+02    0.3958345795E+02    0.0000000000E+00    0    0
  -15    2    4    4    0    0    0.2178807831E+02   -0.3012121010E+02    0.1413384056E+02    0.3981119156E+02    0.1777029991E+01    0    0
   16    1    7    7    0    0    0.1004979420E+02    0.2960532188E+01    0.9263085365E+01    0.1398455811E+02    0.3662109375E-03    0    0
  -24    2    7    7    0    0    0.1625291634E+02    0.5199562550E+01    0.1625163651E+02    0.2359973335E+02    0.1280198932E+01    0    0
 -211    1   12   12    0    0    0.5646510720E+00    0.2132741064E+00    0.8158260584E+00    0.1024386764E+01    0.1395681798E+00    0    0
  111    1   12   12    0    0    0.1300842524E+01    0.3368116617E+00    0.1147199154E+01    0.1771980405E+01    0.1349640191E+00    0    0
   22    1   12   12    0    0    0.1438742256E+02    0.4649476528E+01    0.1428861141E+02    0.2080336380E+02    0.1364787604E-03    0    0
  -16    1   10   10    0    0    0.2661951542E+01   -0.3870875120E+01    0.2094263792E+01    0.5143500805E+01    0.1220703125E-03    0    0
   24    2   10   10    0    0    0.1912698555E+02   -0.2625152206E+02    0.1204013348E+02    0.3466925812E+02    0.1417297482E+01    0    0
  111    1   17   17    0    0    0.4427689552E+01   -0.6668027878E+01    0.3095772982E+01    0.8583067894E+01    0.1349639297E+00    0    0
  111    1   17   17    0    0    0.2398241758E+01   -0.3592201233E+01    0.1715386152E+01    0.4649326801E+01    0.1349642128E+00    0    0
  321    1   17   17    0    0    0.1230105209E+02   -0.1599129200E+02    0.7228973866E+01    0.2143686295E+02    0.4936668873E+00    0    0
</event>
<event>
   21 9999    1    0.9119999695E+02    0.7565275169E-02    0.1185000000E+00
   11   -1    0    0    0    0    0.0000000000E+00    0.0000000000E+00    0.8000000000E+02    0.8000000000E+02    0.5109988851E-03    0    0
  -11   -1    0    0    0    0    0.0000000000E+00    0.0000000000E+00   -0.8000000000E+02    0.8000000000E+02    0.5109988851E-03    0    0
  -24    2    1    2    0    0    0.6650899887E+01    0.4587413788E+01    0.1587861633E+02    0.7635647583E+02    0.7424892426E+02    0    0
   24    2    1    2    0    0   -0.6634695530E+01   -0.4568101406E+01   -0.1586363411E+02    0.8361188507E+02    0.8169703674E+02    0    0
   22    1    1    2    0    0   -0.1614844799E-01   -0.1933750696E-01   -0.1111380570E-01    0.2753594331E-01    0.0000000000E+00    0    0
   22    1    1    2    0    0   -0.9595752317E-06    0.3677878340E-06   -0.3975292668E-02    0.3975293133E-02    0.0000000000E+00    0    0
   22    1    1    2    0    0   -0.5500719999E-04    0.2491965643E-04    0.1070015423E-03    0.1228662295E-03    0.0000000000E+00    0    0
   15    2    3    3    0    0    0.2463374329E+02    0.1185845566E+02    0.3805673218E+02    0.4689261246E+02    0.1777029991E+01    0    0
  -16    1    3    3    0    0   -0.1798284340E+02   -0.7271041870E+01   -0.2217811584E+02    0.2946386909E+02    0.0000000000E+00    0    0
   16    1    4    4    0    0    0.2778607368E+02    0.2299080467E+02    0.1726033330E+01    0.3610570908E+02    0.0000000000E+00    0    0
  -15    2    4    4    0    0   -0.3442076874E+02   -0.2755890656E+02   -0.1758966827E+02    0.4750617599E+02    0.1777029991E+01    0    0
   16    1    8    8    0    0    0.9444729984E-01    0.2555089816E-01    0.3568737507E+00    0.3700434566E+00    0.3836000105E-03    0    0
  -24    2    8    8    0    0    0.2454026413E+02    0.1183337021E+02    0.3770135498E+02    0.4652441025E+02    0.9356567860E+00    0    0
 -211    1   13   13    0    0    0.2669090509E+01    0.1420077920E+01    0.4083325386E+01    0.5082685471E+01    0.1395680308E+00    0    0
 -211    1   13   13    0    0    0.5789613724E+01    0.2956447601E+01    0.8822574615E+01    0.1095981312E+02    0.1395679116E+00    0    0
  211    1   13   13    0    0    0.8037355423E+01    0.3668776512E+01    0.1222299194E+02    0.1508244038E+02    0.1395680010E+00    0    0
  111    1   13   13    0    0    0.8044203758E+01    0.3788068533E+01    0.1257246304E+02    0.1539947128E+02    0.1349640489E+00    0    0
  -16    1   11   11    0    0   -0.6262488365E+01   -0.5788226128E+01   -0.3263668776E+01    0.9130928993E+01    0.1954078471E-03    0    0
  213    2   11   11    0    0   -0.2815963554E+02   -0.2177176476E+02   -0.1432669067E+02    0.3837711716E+02    0.7578583360E+00    0    0
  211    1   19   19    0    0   -0.1113042068E+02   -0.9023073196E+01   -0.5658202171E+01    0.1540574074E+02    0.1395680308E+00    0    0
  111    1   19   19    0    0   -0.1702921486E+02   -0.1274869156E+02   -0.8668487549E+01    0.2297137642E+02    0.1349639595E+00    0    0
</event>
<event>
   19 9999    1    0.9119999695E+02    0.7565275169E-02    0.1185000000E+00
   11   -1    0    0    0    0    0.0000000000E+00    0.0000000000E+00    0.8000000000E+02    0.8000000000E+02    0.5109988851E-03    0    0
  -11   -1    0    0    0    0    0.0000000000E+00    0.0000000000E+00   -0.8000000000E+02    0.8000000000E+02    0.5109988851E-03    0    0
  -24    2    1    2    0    0    0.3162186813E+02   -0.2726341486E+01    0.2016174555E+01    0.9040219116E+02    0.8462338257E+02    0    0
   24    2    1    2    0    0   -0.3162202072E+02    0.2726278067E+01   -0.1157393813E+01    0.6873902893E+02    0.6096170425E+02    0    0
   22    1    1    2    0    0    0.1540871890E-03    0.6335839862E-04   -0.8587806821E+00    0.8587807417E+00    0.0000000000E+00    0    0
   15    2    3    3    0    0    0.4743316269E+02   -0.3039759254E+02    0.1069589424E+02    0.5737141037E+02    0.1777029991E+01    0    0
  -16    1    3    3    0    0   -0.1581129551E+02    0.2767125130E+02   -0.8679719925E+01    0.3303078461E+02    0.0000000000E+00    0    0
   16    1    4    4    0    0   -0.2506593895E+02   -0.1831145096E+02    0.2096932411E+02    0.3746095276E+02    0.0000000000E+00    0    0
  -15    2    4    4    0    0   -0.6556082249E+01    0.2103772926E+02   -0.2212671852E+02    0.3127807045E+02    0.1777029991E+01    0    0
   16    1    6    6    0    0    0.1401222134E+02   -0.9095630646E+01    0.3160319090E+01    0.1700177765E+02    0.9748026059E-04    0    0
  -24    2    6    6    0    0    0.3342280960E+02   -0.2130315971E+02    0.7535996437E+01    0.4037189102E+02    0.1479693294E+01    0    0
 -321    1   11   11    0    0    0.1230838490E+02   -0.7863733768E+01    0.2491019249E+01    0.1482509804E+02    0.4936671257E+00    0    0
  111    1   11   11    0    0    0.2204946041E+01   -0.1475828886E+01    0.6968348622E+00    0.2746570826E+01    0.1349640042E+00    0    0
  130    1   11   11    0    0    0.1890947723E+02   -0.1196359539E+02    0.4348141670E+01    0.2280021858E+02    0.4977200329E+00    0    0
  -16    1    9    9    0    0   -0.1335516214E+01    0.4170627594E+01   -0.4284545898E+01    0.6126587391E+01    0.2174042747E-03    0    0
   24    2    9    9    0    0   -0.5220824242E+01    0.1686792946E+02   -0.1784304428E+02    0.2515271568E+02    0.1581405759E+01    0    0
  221    1   16   16    0    0   -0.2055500507E+01    0.7578611851E+01   -0.8025970459E+01    0.1124178886E+02    0.5487999916E+00    0    0
  211    1   16   16    0    0   -0.1996980309E+01    0.5609298229E+01   -0.5360632420E+01    0.8012990952E+01    0.1395677775E+00    0    0
  111    1   16   16    0    0   -0.1168342829E+01    0.3680018663E+01   -0.4456439972E+01    0.5897934914E+01    0.1349639595E+00    0    0
</event>
<event>
   16 9999    1    0.9119999695E+02    0.7565275169E-02    0.1185000000E+00
   11   -1    0    0    0    0    0.0000000000E+00    0.0000000000E+00    0.8000000000E+02    0.8000000000E+02    0.5109988851E-03    0    0
  -11   -1    0    0    0    0    0.0000000000E+00    0.0000000000E+00   -0.8000000000E+02    0.8000000000E+02    0.5109988851E-03    0    0
  -24    2    1    2    0    0    0.6832523346E+01   -0.1256201553E+02   -0.1063299775E+01    0.8187937927E+02    0.8061398315E+02    0    0
   24    2    1    2    0    0   -0.6832523346E+01    0.1256201553E+02    0.1063299775E+01    0.7812062073E+02    0.7679331207E+02    0    0
   15    2    3    3    0    0    0.3687531281E+02   -0.2771663857E+02   -0.9628095627E+01    0.4715780640E+02    0.1777029991E+01    0    0
  -16    1    3    3    0    0   -0.3004278946E+02    0.1515462303E+02    0.8564796448E+01    0.3472157288E+02    0.0000000000E+00    0    0
   16    1    4    4    0    0   -0.4545786381E+01    0.2786482430E+02    0.3249197388E+02    0.4304463959E+02    0.0000000000E+00    0    0
  -15    2    4    4    0    0   -0.2286736965E+01   -0.1530280876E+02   -0.3142867470E+02    0.3507598114E+02    0.1777029991E+01    0    0
   16    1    5    5    0    0    0.1395504189E+02   -0.1142939663E+02   -0.3780614853E+01    0.1843006706E+02    0.2296435123E-03    0    0
   11    1    5    5    0    0    0.1522320151E+01   -0.1167022228E+01   -0.5633823872E+00    0.1999199629E+01    0.5069960607E-03    0    0
  -12    1    5    5    0    0    0.2139940262E+02   -0.1512131119E+02   -0.5284477711E+01    0.2673039818E+02    0.3051757812E-03    0    0
  -16    1    8    8    0    0   -0.7042523026E+00   -0.3863863468E+01   -0.8063097954E+01    0.8968776703E+01    0.4074411117E-03    0    0
   24    2    8    8    0    0   -0.1582574725E+01   -0.1143954754E+02   -0.2336681366E+02    0.2610858536E+02    0.1510791540E+01    0    0
  321    1   13   13    0    0   -0.9572135210E+00   -0.4481171608E+01   -0.9369344711E+01    0.1044152737E+02    0.4936669767E+00    0    0
  211    1   13   13    0    0   -0.1610149816E-01   -0.4417046309E+00   -0.6250075698E+00    0.7781234384E+00    0.1395684779E+00    0    0
 -211    1   13   13    0    0   -0.6092596054E+00   -0.6516670227E+01   -0.1337245846E+02    0.1488893318E+02    0.1395680457E+00    0    0
</event>
<event>
   15 9999    1    0.9119999695E+02    0.7565275169E-02    0.1185000000E+00
   11   -1    0    0    0    0    0.0000000000E+00    0.0000000000E+00    0.8000000000E+02    0.8000000000E+02    0.5109988851E-03    0    0
  -11   -1    0    0    0    0    0.0000000000E+00    0.0000000000E+00   -0.8000000000E+02    0.8000000000E+02    0.5109988851E-03    0    0
  -24    2    1    2    0    0    0.3070560455E+01   -0.9371260643E+01    0.6920035362E+01    0.8198616791E+02    0.8109621429E+02    0    0
   24    2    1    2    0    0   -0.3070560455E+01    0.9371260643E+01   -0.6920035362E+01    0.7801383209E+02    0.7707802582E+02    0    0
   15    2    3    3    0    0   -0.3333904266E+02   -0.4256259203E+00   -0.1704574013E+02    0.3748850632E+02    0.1777029991E+01    0    0
  -16    1    3    3    0    0    0.3640960312E+02   -0.8945633888E+01    0.2396577454E+02    0.4449766159E+02    0.0000000000E+00    0    0
   16    1    4    4    0    0   -0.3622723007E+02   -0.7993349552E+01    0.7527097702E+01    0.3785449982E+02    0.0000000000E+00    0    0
  -15    2    4    4    0    0    0.3315666962E+02    0.1736461067E+02   -0.1444713306E+02    0.4015933228E+02    0.1777029991E+01    0    0
   16    1    5    5    0    0   -0.1077560139E+02    0.6897307634E+00   -0.5500046730E+01    0.1211774826E+02    0.2349060669E-03    0    0
 -211    1    5    5    0    0   -0.2256475639E+02   -0.1115373492E+01   -0.1154636478E+02    0.2537223434E+02    0.1395679712E+00    0    0
  -16    1    8    8    0    0    0.1736451268E+01    0.9854090810E+00   -0.1033979654E+01    0.2248423576E+01    0.5390478764E-03    0    0
   24    2    8    8    0    0    0.3142152214E+02    0.1637988472E+02   -0.1341372204E+02    0.3791248703E+02    0.1347633123E+01    0    0
  321    1   12   12    0    0    0.1131192589E+02    0.5995455742E+01   -0.4926745892E+01    0.1372667789E+02    0.4936671853E+00    0    0
  211    1   12   12    0    0    0.4593619823E+01    0.2395349026E+01   -0.2287468433E+01    0.5664894581E+01    0.1395678818E+00    0    0
 -211    1   12   12    0    0    0.1551597500E+02    0.7989078045E+01   -0.6199506760E+01    0.1852091217E+02    0.1395680606E+00    0    0
</event>
<event>
   17 9999    1    0.9119999695E+02    0.7565275169E-02    0.1185000000E+00
   11   -1    0    0    0    0    0.0000000000E+00    0.0000000000E+00    0.8000000000E+02    0.8000000000E+02    0.5109988851E-03    0    0
  -11   -1    0    0    0    0    0.0000000000E+00    0.0000000000E+00   -0.8000000000E+02    0.8000000000E+02    0.5109988851E-03    0    0
  -24    2    1    2    0    0    0.2030878639E+02    0.5810023308E+01    0.6455314159E+01    0.7914855194E+02    0.7600407410E+02    0    0
   24    2    1    2    0    0   -0.2030870247E+02   -0.5810008526E+01   -0.6990478992E+01    0.8031628418E+02    0.7717278290E+02    0    0
   22    1    1    2    0    0   -0.8526210877E-04   -0.1454836274E-04    0.5351647735E+00    0.5351647735E+00    0.0000000000E+00    0    0
   15    2    3    3    0    0    0.1490130043E+02    0.1691650963E+02    0.3858648682E+02    0.4472462082E+02    0.1777029991E+01    0    0
  -16    1    3    3    0    0    0.5407487392E+01   -0.1110648632E+02   -0.3213117218E+02    0.3442393112E+02    0.0000000000E+00    0    0
   16    1    4    4    0    0   -0.4055361557E+02   -0.2800504684E+02    0.5715610981E+00    0.4928696442E+02    0.0000000000E+00    0    0
  -15    2    4    4    0    0    0.2024491119E+02    0.2219503784E+02   -0.7562039852E+01    0.3102931595E+02    0.1777029991E+01    0    0
   16    1    6    6    0    0    0.8437137604E+01    0.9655907631E+01    0.2022543526E+02    0.2394765282E+02    0.0000000000E+00    0    0
   11    1    6    6    0    0    0.2396205187E+01    0.2798275471E+01    0.6775092602E+01    0.7711940289E+01    0.5214845878E-03    0    0
  -12    1    6    6    0    0    0.4068544388E+01    0.4462993622E+01    0.1158747673E+02    0.1306678963E+02    0.3452669771E-03    0    0
  -16    1    9    9    0    0    0.3157224894E+01    0.3354016781E+01   -0.8218520880E+00    0.4678988934E+01    0.4485149693E-03    0    0
   24    2    9    9    0    0    0.1708848572E+02    0.1884189606E+02   -0.6740486145E+01    0.2635155106E+02    0.1391644478E+01    0    0
  211    1   14   14    0    0    0.5161375046E+01    0.5314045429E+01   -0.1900492907E+01    0.7649197578E+01    0.1395679116E+00    0    0
  130    1   14   14    0    0    0.8620459557E+01    0.9222440720E+01   -0.3477593422E+01    0.1310370636E+02    0.4977199137E+00    0    0
  111    1   14   14    0    0    0.3306651354E+01    0.4305411816E+01   -0.1362400293E+01    0.5598648548E+01    0.1349642277E+00    0    0
</event>
<event>
   19 9999    1    0.9119999695E+02    0.7565275169E-02    0.1185000000E+00
   11   -1    0    0    0    0    0.0000000000E+00    0.0000000000E+00    0.8000000000E+02    0.8000000000E+02    0.5109988851E-03    0    0
  -11   -1    0    0    0    0    0.0000000000E+00    0.0000000000E+00   -0.8000000000E+02    0.8000000000E+02    0.5109988851E-03    0    0
  -24    2    1    2    0    0    0.7893619537E+01    0.2523209095E+01   -0.5293378830E+01    0.8076381683E+02    0.8016294861E+02    0    0
   24    2    1    2    0    0   -0.7893619537E+01   -0.2523209095E+01    0.5293378830E+01    0.7923618317E+02    0.7862364197E+02    0    0
   15    2    3    3    0    0    0.2496967125E+02    0.3450694275E+02    0.5379777431E+01    0.4296875000E+02    0.1777029991E+01    0    0
  -16    1    3    3    0    0   -0.1707605171E+02   -0.3198373413E+02   -0.1067315578E+02    0.3779506683E+02    0.0000000000E+00    0    0
   16    1    4    4    0    0   -0.1197861576E+02    0.3618011475E+02   -0.2694023848E+01    0.3820661545E+02    0.0000000000E+00    0    0
  -15    2    4    4    0    0    0.3833261251E+01   -0.3768283844E+02    0.9590161324E+01    0.3911290359E+02    0.1777029991E+01    0    0
   22    1    4    4    0    0    0.2517352700E+00   -0.1020483255E+01   -0.1602758169E+01    0.1916661382E+01    0.0000000000E+00    0    0
   16    1    5    5    0    0    0.5706243515E+00    0.6763257980E+00    0.1208502203E+00    0.8931035399E+00    0.6950238021E-03    0    0
  -24    2    5    5    0    0    0.2440002823E+02    0.3383197403E+02    0.5259138584E+01    0.4207733536E+02    0.1696984649E+01    0    0
  221    1   11   11    0    0    0.7059909821E+01    0.9494373322E+01    0.1128186107E+01    0.1189787579E+02    0.5488001108E+00    0    0
 -211    1   11   11    0    0    0.3903217316E+01    0.6027124882E+01    0.1111215591E+01    0.7267435551E+01    0.1395680159E+00    0    0
  111    1   11   11    0    0    0.1343690300E+02    0.1831047821E+02    0.3019737244E+01    0.2291202736E+02    0.1349640638E+00    0    0
  -16    1    8    8    0    0    0.9259243011E+00   -0.1450000572E+02    0.3818298101E+01    0.1502287865E+02    0.3737624793E-03    0    0
   24    2    8    8    0    0    0.2907476664E+01   -0.2318420410E+02    0.5772208214E+01    0.2409144592E+02    0.1057683587E+01    0    0
  211    1   16   16    0    0    0.5570827723E+00   -0.3188858271E+01    0.8908107877E+00    0.3360383749E+01    0.1395682245E+00    0    0
  111    1   16   16    0    0    0.1019576550E+01   -0.1030933094E+02    0.2174378633E+01    0.1058621693E+02    0.1349639595E+00    0    0
   22    1   16   16    0    0    0.1330816746E+01   -0.9686008453E+01    0.2707018375E+01    0.1014484024E+02    0.6103515625E-04    0    0
</event>
<event>
   20 9999    1    0.9119999695E+02    0.7565275169E-02    0.1185000000E+00
   11   -1    0    0    0    0    0.0000000000E+00    0.0000000000E+00    0.8000000000E+02    0.8000000000E+02    0.5109988851E-03    0    0
  -11   -1    0    0    0    0    0.0000000000E+00    0.0000000000E+00   -0.8000000000E+02    0.8000000000E+02    0.5109988851E-03    0    0
  -24    2    1    2    0    0   -0.1643651128E+01   -0.8895687461E+00   -0.1209456921E+02    0.7859012604E+02    0.7763141632E+02    0    0
   24    2    1    2    0    0    0.1643651128E+01    0.8895687461E+00    0.1209456921E+02    0.8140987396E+02    0.8048475647E+02    0    0
   15    2    3    3    0    0    0.2743421745E+02   -0.2654657555E+02   -0.1110953999E+02    0.3979870224E+02    0.1777029991E+01    0    0
  -16    1    3    3    0    0   -0.2907786942E+02    0.2565700722E+02   -0.9850296378E+00    0.3879142761E+02    0.0000000000E+00    0    0
   16    1    4    4    0    0    0.4029561234E+02   -0.4394269466E+01    0.1229264450E+02    0.4235746765E+02    0.0000000000E+00    0    0
  -15    2    4    4    0    0   -0.3865196228E+02    0.5283838272E+01   -0.1980749816E+00    0.3905240250E+02    0.1777029991E+01    0    0
   16    1    5    5    0    0    0.5118009567E+01   -0.5007351875E+01   -0.1871779442E+01    0.7400753975E+01    0.0000000000E+00    0    0
  -24    2    5    5    0    0    0.2231728745E+02   -0.2154026985E+02   -0.9238197327E+01    0.3239951706E+02    0.1529629111E+01    0    0
 -211    1   10   10    0    0    0.4653871536E+01   -0.4217061043E+01   -0.2087776184E+01    0.6619698524E+01    0.1395679861E+00    0    0
 -211    1   10   10    0    0    0.1947899461E+01   -0.1683394551E+01   -0.8275473714E+00    0.2707848549E+01    0.1395679712E+00    0    0
 -211    1   10   10    0    0    0.4552677155E+01   -0.4419485092E+01   -0.1552077889E+01    0.6533539772E+01    0.1395679265E+00    0    0
  211    1   10   10    0    0    0.5332855225E+01   -0.5630086899E+01   -0.2244143248E+01    0.8074211121E+01    0.1395678967E+00    0    0
  211    1   10   10    0    0    0.5829984665E+01   -0.5590241909E+01   -0.2526653290E+01    0.8464218140E+01    0.1395680010E+00    0    0
  -16    1    8    8    0    0   -0.1698145151E+01    0.1324430341E-02    0.8178691566E-01    0.1700114131E+01    0.4374777491E-03    0    0
   24    2    8    8    0    0   -0.3695533752E+02    0.5282721519E+01   -0.2798696756E+00    0.3735382462E+02    0.1275076866E+01    0    0
  211    1   17   17    0    0   -0.1664047241E+02    0.2527168512E+01   -0.4297509193E+00    0.1683734322E+02    0.1395681202E+00    0    0
  111    1   17   17    0    0   -0.1944569016E+02    0.2723564863E+01    0.1266423240E-01    0.1963596344E+02    0.1349640191E+00    0    0
   22    1   17   17    0    0   -0.8691745996E+00    0.3198834881E-01    0.1372169554E+00    0.8805204034E+00    0.1141863249E-03    0    0
</event>
<event>
   18 9999    1    0.9119999695E+02    0.7565275169E-02    0.1185000000E+00
   11   -1    0    0    0    0    0.0000000000E+00    0.0000000000E+00    0.8000000000E+02    0.8000000000E+02    0.5109988851E-03    0    0
  -11   -1    0    0    0    0    0.0000000000E+00    0.0000000000E+00   -0.8000000000E+02    0.8000000000E+02    0.5109988851E-03    0    0
  -24    2    1    2    0    0    0.6287450790E+01   -0.6778452396E+01   -0.1018046379E+02    0.8181813812E+02    0.8065411377E+02    0    0
   24    2    1    2    0    0   -0.6287450790E+01    0.6778452396E+01    0.1018046379E+02    0.7818186188E+02    0.7696286011E+02    0    0
   15    2    3    3    0    0    0.6641679287E+01    0.1214631176E+02   -0.4229620743E+02    0.4453955078E+02    0.1777029991E+01    0    0
  -16    1    3    3    0    0   -0.3542284966E+00   -0.1892476463E+02    0.3211574173E+02    0.3727858734E+02    0.0000000000E+00    0    0
   16    1    4    4    0    0   -0.3342489243E+02   -0.8492420197E+01    0.2601897049E+02    0.4320106125E+02    0.0000000000E+00    0    0
  -15    2    4    4    0    0    0.2713744354E+02    0.1527087212E+02   -0.1583850765E+02    0.3498080063E+02    0.1777029991E+01    0    0
   16    1    5    5    0    0    0.1668278933E+01    0.3470833778E+01   -0.1091748810E+02    0.1157676029E+02    0.4401307669E-03    0    0
  -24    2    5    5    0    0    0.4973661423E+01    0.8675955772E+01   -0.3138038254E+02    0.3296454239E+02    0.1386804700E+01    0    0
 -321    1   10   10    0    0    0.1699066877E+01    0.2994054794E+01   -0.1172115135E+02    0.1222621250E+02    0.4936670959E+00    0    0
 -211    1   10   10    0    0    0.4058290124E+00    0.5335178375E+00   -0.2252855539E+01    0.2354607344E+01    0.1395676583E+00    0    0
  321    1   10   10    0    0    0.2868765831E+01    0.5148383141E+01   -0.1740637589E+02    0.1838372421E+02    0.4936670065E+00    0    0
  -16    1    8    8    0    0    0.4768986225E+01    0.2992586613E+01   -0.2970357895E+01    0.6365675926E+01    0.4283346061E-03    0    0
   24    2    8    8    0    0    0.2236952400E+02    0.1227888680E+02   -0.1286877251E+02    0.2861650276E+02    0.1460210323E+01    0    0
  321    1   15   15    0    0    0.7652193069E+01    0.3913933039E+01   -0.4488866329E+01    0.9709199905E+01    0.4936669469E+00    0    0
  211    1   15   15    0    0    0.3546445847E+01    0.2276120424E+01   -0.2141728878E+01    0.4729110241E+01    0.1395678967E+00    0    0
 -321    1   15   15    0    0    0.1117088604E+02    0.6088832855E+01   -0.6238177776E+01    0.1417819214E+02    0.4936670363E+00    0    0
</event>
<event>
   14 9999    1    0.9119999695E+02    0.7565275169E-02    0.1185000000E+00
   11   -1    0    0    0    0    0.0000000000E+00    0.0000000000E+00    0.8000000000E+02    0.8000000000E+02    0.5109988851E-03    0    0
  -11   -1    0    0    0    0    0.0000000000E+00    0.0000000000E+00   -0.8000000000E+02    0.8000000000E+02    0.5109988851E-03    0    0
  -24    2    1    2    0    0    0.6068878174E+01   -0.1075343800E+02    0.3927950859E+01    0.8062513733E+02    0.7957711029E+02    0    0
   24    2    1    2    0    0   -0.6068878174E+01    0.1075343800E+02   -0.3927950859E+01    0.7937486267E+02    0.7831010437E+02    0    0
   15    2    3    3    0    0   -0.3112144661E+02   -0.1377375031E+02    0.2052988815E+02    0.3978561020E+02    0.1777029991E+01    0    0
  -16    1    3    3    0    0    0.3719032288E+02    0.3020311594E+01   -0.1660193634E+02    0.4083952713E+02    0.0000000000E+00    0    0
   16    1    4    4    0    0    0.2760295868E+02   -0.1709569168E+02    0.9142765045E+01    0.3373093796E+02    0.0000000000E+00    0    0
  -15    2    4    4    0    0   -0.3367183685E+02    0.2784913063E+02   -0.1307071590E+02    0.4564392853E+02    0.1777029991E+01    0    0
   16    1    5    5    0    0   -0.2066695976E+02   -0.8744588852E+01    0.1300279713E+02    0.2593576241E+02    0.1726334885E-03    0    0
 -213    2    5    5    0    0   -0.1045571041E+02   -0.5029703140E+01    0.7527898312E+01    0.1385141182E+02    0.7566766739E+00    0    0
 -211    1   10   10    0    0   -0.6445644379E+01   -0.3138139725E+01    0.4242896557E+01    0.8331620216E+01    0.1395680159E+00    0    0
  111    1   10   10    0    0   -0.4010067463E+01   -0.1891564131E+01    0.3285002470E+01    0.5519793034E+01    0.1349640638E+00    0    0
  -16    1    8    8    0    0   -0.2917185020E+02    0.2376409721E+02   -0.1156012630E+02    0.3936198425E+02    0.4228639591E-03    0    0
  321    1    8    8    0    0   -0.4501313686E+01    0.4086130619E+01   -0.1511104703E+01    0.6283743382E+01    0.4936669469E+00    0    0
</event>
<event>
   18 9999    1    0.9119999695E+02    0.7565275169E-02    0.1185000000E+00
   11   -1    0    0    0    0    0.0000000000E+00    0.0000000000E+00    0.8000000000E+02    0.8000000000E+02    0.5109988851E-03    0    0
  -11   -1    0    0    0    0    0.0000000000E+00    0.0000000000E+00   -0.8000000000E+02    0.8000000000E+02    0.5109988851E-03    0    0
  -24    2    1    2    0    0    0.4675683498E+01   -0.6337299943E+00    0.2713151455E+01    0.8092317963E+02    0.8073993683E+02    0    0
   24    2    1    2    0    0   -0.4676194668E+01    0.6322460771E+00   -0.2600190639E+01    0.7896384430E+02    0.7877983093E+02    0    0
   22    1    1    2    0    0    0.5115525564E-03    0.1483943313E-02   -0.1129608676E+00    0.1129717752E+00    0.0000000000E+00    0    0
   15    2    3    3    0    0   -0.1899911880E+02   -0.2136899948E+02    0.2836985779E+02    0.4031882095E+02    0.1777029991E+01    0    0
  -16    1    3    3    0    0    0.2367480278E+02    0.2073526764E+02   -0.2565670586E+02    0.4060436249E+02    0.0000000000E+00    0    0
   16    1    4    4    0    0   -0.2324307251E+02   -0.1091522336E+01   -0.3471130371E+02    0.4178882980E+02    0.0000000000E+00    0    0
  -15    2    4    4    0    0    0.1856687737E+02    0.1723768473E+01    0.3211111069E+02    0.3717501450E+02    0.1777029991E+01    0    0
   16    1    6    6    0    0   -0.1573468447E+01   -0.1511818528E+01    0.2515262365E+01    0.3329856396E+01    0.4526488192E-03    0    0
  -24    2    6    6    0    0   -0.1742639923E+02   -0.1985802078E+02    0.2585571098E+02    0.3699055099E+02    0.1327654004E+01    0    0
 -321    1   11   11    0    0   -0.9023721695E+01   -0.1026530552E+02    0.1384915161E+02    0.1946398544E+02    0.4936669767E+00    0    0
 -211    1   11   11    0    0   -0.1177851915E+01   -0.1581314683E+01    0.1736541271E+01    0.2631149292E+01    0.1395679861E+00    0    0
  211    1   11   11    0    0   -0.7224825859E+01   -0.8011401176E+01    0.1027001953E+02    0.1489541721E+02    0.1395680159E+00    0    0
  -16    1    9    9    0    0    0.1438283443E+01   -0.6804578006E-01    0.1958032727E+01    0.2430469513E+01    0.0000000000E+00    0    0
   24    2    9    9    0    0    0.1712932587E+02    0.1791882157E+01    0.3015434456E+02    0.3474600983E+02    0.1173045039E+01    0    0
  321    1   16   16    0    0    0.1080386448E+02    0.8773605824E+00    0.1917239380E+02    0.2202992630E+02    0.4936670959E+00    0    0
  310    1   16   16    0    0    0.6325461388E+01    0.9145216346E+00    0.1098195171E+02    0.1271608448E+02    0.4977201223E+00    0    0
</event>
<event>
   21 9999    1    0.9119999695E+02    0.7565275169E-02    0.1185000000E+00
   11   -1    0    0    0    0    0.0000000000E+00    0.0000000000E+00    0.8000000000E+02    0.8000000000E+02    0.5109988851E-03    0    0
  -11   -1    0    0    0    0    0.0000000000E+00    0.0000000000E+00   -0.8000000000E+02    0.8000000000E+02    0.5109988851E-03    0    0
  -24    2    1    2    0    0   -0.1500053120E+02   -0.5053780079E+01    0.1799841118E+02    0.8309794617E+02    0.7956613159E+02    0    0
   24    2    1    2    0    0    0.1466179371E+02    0.5608045101E+01   -0.1899544334E+02    0.7547460175E+02    0.7133842468E+02    0    0
   22    1    1    2    0    0    0.3337854147E+00   -0.5571579337E+00    0.1123314977E+01    0.1297564745E+01    0.0000000000E+00    0    0
   22    1    1    2    0    0    0.4952500109E-02    0.2891737968E-02   -0.1280204356E+00    0.1281488240E+00    0.0000000000E+00    0    0
   22    1    1    2    0    0   -0.4908796427E-06    0.1282530661E-05    0.1738688792E-02    0.1738689374E-02    0.0000000000E+00    0    0
   15    2    3    3    0    0   -0.1648466492E+02   -0.1599772453E+02    0.1322712326E+02    0.2656662941E+02    0.1777029991E+01    0    0
  -16    1    3    3    0    0    0.1678468704E+02    0.2786010742E+02   -0.2419450760E+01    0.3261541748E+02    0.0000000000E+00    0    0
   22    1    3    3    0    0   -0.1530055428E+02   -0.1691616440E+02    0.7190739155E+01    0.2391590118E+02    0.0000000000E+00    0    0
   16    1    4    4    0    0    0.4140734100E+02    0.7841767788E+01    0.6803110838E+00    0.4214883041E+02    0.0000000000E+00    0    0
  -15    2    4    4    0    0   -0.2674554634E+02   -0.2233722687E+01   -0.1967575455E+02    0.3332577133E+02    0.1777029991E+01    0    0
   16    1    8    8    0    0   -0.1234387159E+01   -0.1036853075E+01    0.1015496492E+01    0.1905257940E+01    0.5254875286E-03    0    0
  -24    2    8    8    0    0   -0.1525091362E+02   -0.1496148872E+02    0.1221213531E+02    0.2466239548E+02    0.1631305337E+01    0    0
 -321    1   14   14    0    0   -0.3261087894E+01   -0.3461510420E+01    0.2421535492E+01    0.5359503269E+01    0.4936671853E+00    0    0
 -211    1   14   14    0    0   -0.1144762874E+01   -0.1172364831E+01    0.8017058372E+00    0.1829516768E+01    0.1395679861E+00    0    0
  321    1   14   14    0    0   -0.1084506035E+02   -0.1032761383E+02    0.8988891602E+01    0.1747337151E+02    0.4936670065E+00    0    0
  -16    1   12   12    0    0   -0.5558288574E+01   -0.1013960838E+01   -0.3723095417E+01    0.6766396999E+01    0.1495049946E-03    0    0
  213    2   12   12    0    0   -0.2118831253E+02   -0.1219849825E+01   -0.1595343399E+02    0.2656068611E+02    0.7248274684E+00    0    0
  211    1   19   19    0    0   -0.1380416107E+02   -0.8150748610E+00   -0.9995767593E+01    0.1706323814E+02    0.1395679116E+00    0    0
  111    1   19   19    0    0   -0.7384150028E+01   -0.4047749341E+00   -0.5957666874E+01    0.9497447968E+01    0.1349638999E+00    0    0
</event>
<event>
   21 9999    1    0.9119999695E+02    0.7565275169E-02    0.1185000000E+00
   11   -1    0    0    0    0    0.0000000000E+00    0.0000000000E+00    0.8000000000E+02    0.8000000000E+02    0.5109988851E-03    0    0
  -11   -1    0    0    0    0    0.0000000000E+00    0.0000000000E+00   -0.8000000000E+02    0.8000000000E+02    0.5109988851E-03    0    0
  -24    2    1    2    0    0   -0.3858314276E+01    0.1527173996E+02    0.1797269058E+02    0.8324791718E+02    0.7974387360E+02    0    0
   24    2    1    2    0    0    0.3858314276E+01   -0.1527173996E+02   -0.1797269058E+02    0.7675208282E+02    0.7293663025E+02    0    0
   15    2    3    3    0    0   -0.1710912704E+02    0.3997631836E+02    0.2987984848E+02    0.5279006958E+02    0.1777029991E+01    0    0
  -16    1    3    3    0    0    0.1325081253E+02   -0.2470457840E+02   -0.1190715694E+02    0.3045784950E+02    0.0000000000E+00    0    0
   16    1    4    4    0    0    0.3339855576E+02    0.1840775132E+01    0.7303479671E+01    0.3423730087E+02    0.0000000000E+00    0    0
  -15    2    4    4    0    0   -0.2954024124E+02   -0.1711251450E+02   -0.2527617073E+02    0.4251478195E+02    0.1777029991E+01    0    0
   16    1    5    5    0    0   -0.2993582010E+01    0.7623054028E+01    0.5655834198E+01    0.9952937126E+01    0.5777220358E-03    0    0
  -24    2    5    5    0    0   -0.1411621761E+02    0.3235483551E+02    0.2422518921E+02    0.4283920670E+02    0.1494983792E+01    0    0
 -211    1   10   10    0    0   -0.2709229946E+01    0.5253508568E+01    0.4117851734E+01    0.7205238819E+01    0.1395680308E+00    0    0
 -211    1   10   10    0    0   -0.1637741923E+01    0.3547945499E+01    0.2669927835E+01    0.4734776497E+01    0.1395680159E+00    0    0
  211    1   10   10    0    0   -0.5799112797E+01    0.1373200226E+02    0.1007615185E+02    0.1799294090E+02    0.1395679712E+00    0    0
  111    1   10   10    0    0   -0.2251285553E+01    0.5934335709E+01    0.4461864471E+01    0.7759579659E+01    0.1349639446E+00    0    0
  111    1   10   10    0    0   -0.1718845844E+01    0.3887042284E+01    0.2899390459E+01    0.5146669865E+01    0.1349639148E+00    0    0
  -16    1    8    8    0    0   -0.6955126286E+01   -0.4545534611E+01   -0.5734047890E+01    0.1009529400E+02    0.3955530119E-03    0    0
   24    2    8    8    0    0   -0.2258627701E+02   -0.1256765366E+02   -0.1954311752E+02    0.3242116165E+02    0.1054675460E+01    0    0
  111    1   17   17    0    0   -0.3275742531E+01   -0.1699701905E+01   -0.2713082075E+01    0.4582412720E+01    0.1349640042E+00    0    0
  111    1   17   17    0    0   -0.1789000630E+01   -0.1146882892E+01   -0.1548700094E+01    0.2632973671E+01    0.1349639148E+00    0    0
  111    1   17   17    0    0   -0.1407819653E+02   -0.7969113827E+01   -0.1221015167E+02    0.2026840973E+02    0.1349640042E+00    0    0
  211    1   17   17    0    0   -0.3443337917E+01   -0.1751955748E+01   -0.3071183681E+01    0.4937365055E+01    0.1395681053E+00    0    0
</event>
<event>
   18 9999    1    0.9119999695E+02    0.7565275169E-02    0.1185000000E+00
   11   -1    0    0    0    0    0.0000000000E+00    0.0000000000E+00    0.8000000000E+02    0.8000000000E+02    0.5109988851E-03    0    0
  -11   -1    0    0    0    0    0.0000000000E+00    0.0000000000E+00   -0.8000000000E+02    0.8000000000E+02    0.5109988851E-03    0    0
  -24    2    1    2    0    0    0.1166388869E+01   -0.5687585831E+01   -0.9183896065E+01    0.8079115295E+02    0.8005721283E+02    0    0
   24    2    1    2    0    0   -0.1166298985E+01    0.5687843323E+01    0.9227933884E+01    0.7916381073E+02    0.7840944672E+02    0    0
   22    1    1    2    0    0   -0.8983285079E-04   -0.2603227622E-03   -0.4444740713E-01    0.4444826022E-01    0.0000000000E+00    0    0
   22    1    1    2    0    0    0.8640560054E-06    0.2996951025E-05    0.5018239608E-03    0.5018336815E-03    0.0000000000E+00    0    0
   22    1    1    2    0    0   -0.8885706393E-06   -0.2024721653E-06   -0.9211733413E-04    0.9212183795E-04    0.0000000000E+00    0    0
   15    2    3    3    0    0    0.2196044922E+02   -0.4200957298E+01   -0.3865565491E+02    0.4469146347E+02    0.1777029991E+01    0    0
  -16    1    3    3    0    0   -0.2079405975E+02   -0.1486628294E+01    0.2947175789E+02    0.3609968948E+02    0.0000000000E+00    0    0
   16    1    4    4    0    0    0.1708378601E+02    0.1440112305E+02   -0.2856352997E+02    0.3626462936E+02    0.0000000000E+00    0    0
  -15    2    4    4    0    0   -0.1825008583E+02   -0.8713279724E+01    0.3779146576E+02    0.4289917755E+02    0.1777029991E+01    0    0
   16    1    8    8    0    0    0.1365770435E+02   -0.3150944233E+01   -0.2397602654E+02    0.2777249146E+02    0.1525878906E-03    0    0
   13    1    8    8    0    0    0.4620506287E+01   -0.2490718365E+00   -0.7584088802E+01    0.8884857178E+01    0.1056592986E+00    0    0
  -14    1    8    8    0    0    0.3683103561E+01   -0.8011069298E+00   -0.7097059727E+01    0.8035874367E+01    0.0000000000E+00    0    0
  -16    1   11   11    0    0   -0.1127981472E+02   -0.5810163498E+01    0.2395356941E+02    0.2710656166E+02    0.7475249731E-04    0    0
  323    2   11   11    0    0   -0.6970987320E+01   -0.2903458595E+01    0.1383938122E+02    0.1579430199E+02    0.9522525072E+00    0    0
  211    1   16   16    0    0   -0.3407388926E+01   -0.1101070404E+01    0.6286563873E+01    0.7236229420E+01    0.1395678520E+00    0    0
  310    1   16   16    0    0   -0.3563599348E+01   -0.1802388668E+01    0.7552819252E+01    0.8558074951E+01    0.4977200031E+00    0    0
</event>
<event>
   22 9999    1    0.9119999695E+02    0.7565275169E-02    0.1185000000E+00
   11   -1    0    0    0    0    0.0000000000E+00    0.0000000000E+00    0.8000000000E+02    0.8000000000E+02    0.5109988851E-03    0    0
  -11   -1    0    0    0    0    0.0000000000E+00    0.0000000000E+00   -0.8000000000E+02    0.8000000000E+02    0.5109988851E-03    0    0
  -24    2    1    2    0    0   -0.4992626190E+01   -0.1208996773E+02   -0.1992816925E+01    0.7916935730E+02    0.7805589294E+02    0    0
   24    2    1    2    0    0    0.4967220783E+01    0.1211340332E+02    0.2371263981E+01    0.8045008850E+02    0.7934220886E+02    0    0
   22    1    1    2    0    0    0.2554715239E-01   -0.2297154441E-01   -0.3652745485E+00    0.3668866754E+00    0.0000000000E+00    0    0
   22    1    1    2    0    0   -0.1416158775E-03   -0.4639374965E-03   -0.1341380924E-01    0.1342257671E-01    0.0000000000E+00    0    0
   22    1    1    2    0    0   -0.7782404721E-09   -0.2248593456E-11    0.1372192783E-03    0.1372192783E-03    0.0000000000E+00    0    0
   22    1    1    2    0    0   -0.3850141184E-07   -0.3028875284E-07    0.1041742289E-03    0.1041742435E-03    0.0000000000E+00    0    0
   15    2    3    3    0    0   -0.2735591650E+01   -0.2254067612E+02    0.3439007568E+02    0.4124803925E+02    0.1777029991E+01    0    0
  -16    1    3    3    0    0   -0.2257034779E+01    0.1045070839E+02   -0.3638289261E+02    0.3792131805E+02    0.0000000000E+00    0    0
   16    1    4    4    0    0   -0.2600670099E+01   -0.1533032799E+02   -0.3212404251E+02    0.3568944550E+02    0.0000000000E+00    0    0
  -15    2    4    4    0    0    0.7567890644E+01    0.2744373131E+02    0.3449530792E+02    0.4476064682E+02    0.1777029991E+01    0    0
   16    1    9    9    0    0   -0.1720887065E+01   -0.1273973083E+02    0.1863134766E+02    0.2263601875E+02    0.1220703125E-03    0    0
 -213    2    9    9    0    0   -0.1014812112E+01   -0.9801831245E+01    0.1576008129E+02    0.1861364365E+02    0.9908623695E+00    0    0
 -211    1   14   14    0    0   -0.1867678016E+00   -0.3224215269E+01    0.5975786686E+01    0.6794111729E+01    0.1395680606E+00    0    0
  111    1   14   14    0    0   -0.8280444145E+00   -0.6577617168E+01    0.9784296036E+01    0.1181953335E+02    0.1349638849E+00    0    0
  -16    1   12   12    0    0    0.7381443381E+00    0.3804740191E+01    0.5391905785E+01    0.6640297890E+01    0.3229676804E-03    0    0
   24    2   12   12    0    0    0.6830044270E+01    0.2364007187E+02    0.2910475922E+02    0.3812210846E+02    0.8401090503E+00    0    0
  111    1   18   18    0    0    0.1304476857E+01    0.4710060596E+01    0.5554563046E+01    0.7399846077E+01    0.1349638999E+00    0    0
  111    1   18   18    0    0    0.1150074959E+01    0.4276484489E+01    0.5345230579E+01    0.6942672253E+01    0.1349640042E+00    0    0
  111    1   18   18    0    0    0.1584750533E+01    0.5567376614E+01    0.6686147213E+01    0.8844766617E+01    0.1349639744E+00    0    0
  211    1   18   18    0    0    0.2790741444E+01    0.9086147308E+01    0.1151881504E+02    0.1493482113E+02    0.1395679265E+00    0    0
</event>
<event>
   18 9999    1    0.9119999695E+02    0.7565275169E-02    0.1185000000E+00
   11   -1    0    0    0    0    0.0000000000E+00    0.0000000000E+00    0.8000000000E+02    0.8000000000E+02    0.5109988851E-03    0    0
  -11   -1    0    0    0    0    0.0000000000E+00    0.0000000000E+00   -0.8000000000E+02    0.8000000000E+02    0.5109988851E-03    0    0
  -24    2    1    2    0    0   -0.3972914457E+01   -0.9859815598E+01    0.1461626816E+02    0.7909212494E+02    0.7699953461E+02    0    0
   24    2    1    2    0    0    0.3972914457E+01    0.9859815598E+01   -0.1461626816E+02    0.8090787506E+02    0.7886348724E+02    0    0
   15    2    3    3    0    0    0.1427060509E+02   -0.3155678940E+02    0.3085881424E+02    0.4642095947E+02    0.1777029991E+01    0    0
  -16    1    3    3    0    0   -0.1824351883E+02    0.2169697380E+02   -0.1624254608E+02    0.3267116547E+02    0.0000000000E+00    0    0
   16    1    4    4    0    0    0.3443396759E+02    0.2760869980E+02   -0.5719903946E+01    0.4450455856E+02    0.0000000000E+00    0    0
  -15    2    4    4    0    0   -0.3046105194E+02   -0.1774888420E+02   -0.8896365166E+01    0.3640332031E+02    0.1777029991E+01    0    0
   16    1    5    5    0    0    0.2642982721E+01   -0.5438568115E+01    0.5007516384E+01    0.7851025581E+01    0.2441406250E-03    0    0
  -24    2    5    5    0    0    0.1162818432E+02   -0.2611946297E+02    0.2585251236E+02    0.3857176208E+02    0.1409695745E+01    0    0
 -321    1   10   10    0    0    0.4869016647E+01   -0.1020961189E+02    0.1011972332E+02    0.1518538761E+02    0.4936671555E+00    0    0
 -211    1   10   10    0    0    0.1633832693E+01   -0.3721587181E+01    0.3459821463E+01    0.5339425564E+01    0.1395679116E+00    0    0
  321    1   10   10    0    0    0.5125335217E+01   -0.1218826580E+02    0.1227296925E+02    0.1804694939E+02    0.4936670363E+00    0    0
  -16    1    8    8    0    0   -0.4839406490E+01   -0.2901222229E+01   -0.1618890285E+01    0.5870072365E+01    0.1364787604E-03    0    0
   24    2    8    8    0    0   -0.2562284470E+02   -0.1484836006E+02   -0.7277824879E+01    0.3053468132E+02    0.1547905922E+01    0    0
  111    1   15   15    0    0   -0.1302840042E+02   -0.7094679356E+01   -0.3705075741E+01    0.1529115772E+02    0.1349636912E+00    0    0
  111    1   15   15    0    0   -0.1817517757E+01   -0.9678616524E+00   -0.3016007543E+00    0.2085498810E+01    0.1349640936E+00    0    0
  321    1   15   15    0    0   -0.1077692890E+02   -0.6785820484E+01   -0.3271148682E+01    0.1315802670E+02    0.4936669469E+00    0    0
</event>
<event>
   16 9999    1    0.9119999695E+02    0.7565275169E-02    0.1185000000E+00
   11   -1    0    0    0    0    0.0000000000E+00    0.0000000000E+00    0.8000000000E+02    0.8000000000E+02    0.5109988851E-03    0    0
  -11   -1    0    0    0    0    0.0000000000E+00    0.0000000000E+00   -0.8000000000E+02    0.8000000000E+02    0.5109988851E-03    0    0
  -24    2    1    2    0    0   -0.2946501493E+01   -0.1881403160E+02    0.5035829544E+01    0.8134876251E+02    0.7892788696E+02    0    0
   24    2    1    2    0    0    0.2946501255E+01    0.1881403160E+02   -0.5035396576E+01    0.7865080261E+02    0.7614423370E+02    0    0
   22    1    1    2    0    0    0.1676554575E-06   -0.4469326313E-06   -0.4329095536E-03    0.4329098156E-03    0.0000000000E+00    0    0
   15    2    3    3    0    0    0.3027217674E+02   -0.1041408920E+02   -0.2098895264E+02    0.3832168961E+02    0.1777029991E+01    0    0
  -16    1    3    3    0    0   -0.3321867752E+02   -0.8399941444E+01    0.2602478218E+02    0.4302707291E+02    0.0000000000E+00    0    0
   16    1    4    4    0    0    0.1707179308E+01   -0.2366238403E+02    0.1846100998E+02    0.3006046867E+02    0.0000000000E+00    0    0
  -15    2    4    4    0    0    0.1239322066E+01    0.4247641754E+02   -0.2349640656E+02    0.4859033585E+02    0.1777029991E+01    0    0
   16    1    6    6    0    0    0.7235027313E+01   -0.2523728609E+01   -0.4846379280E+01    0.9066544533E+01    0.5593964597E-03    0    0
  -24    2    6    6    0    0    0.2303834152E+02   -0.7890770435E+01   -0.1614339828E+02    0.2925665474E+02    0.1520873308E+01    0    0
 -321    1   11   11    0    0    0.6919520378E+01   -0.2165433407E+01   -0.5024533272E+01    0.8835072517E+01    0.4936670661E+00    0    0
 -211    1   11   11    0    0    0.2362746477E+01   -0.6107624173E+00   -0.1535106421E+01    0.2886456728E+01    0.1395679116E+00    0    0
  321    1   11   11    0    0    0.1375607300E+02   -0.5114573956E+01   -0.9583757401E+01    0.1753512192E+02    0.4936670065E+00    0    0
  -16    1    9    9    0    0    0.1018948317E+01    0.1359457588E+02   -0.6917077541E+01    0.1528714180E+02    0.0000000000E+00    0    0
  211    1    9    9    0    0    0.2204226106E+00    0.2888351440E+02   -0.1658025551E+02    0.3330511093E+02    0.1395679563E+00    0    0
</event>
<event>
   19 9999    1    0.9119999695E+02    0.7565275169E-02    0.1185000000E+00
   11   -1    0    0    0    0    0.0000000000E+00    0.0000000000E+00    0.8000000000E+02    0.8000000000E+02    0.5109988851E-03    0    0
  -11   -1    0    0    0    0    0.0000000000E+00    0.0000000000E+00   -0.8000000000E+02    0.8000000000E+02    0.5109988851E-03    0    0
  -24    2    1    2    0    0    0.1485847950E+02   -0.1570746613E+02    0.4365167618E+02    0.9233249664E+02    0.7843673706E+02    0    0
   24    2    1    2    0    0   -0.1485838318E+02    0.1570745373E+02   -0.4358605576E+02    0.6760189056E+02    0.4693373108E+02    0    0
   22    1    1    2    0    0   -0.9660771320E-04    0.1217901809E-04   -0.6561855227E-01    0.6561861932E-01    0.0000000000E+00    0    0
   15    2    3    3    0    0   -0.8486796379E+01    0.2379188919E+02    0.3861083221E+02    0.4617395020E+02    0.1777029991E+01    0    0
  -16    1    3    3    0    0    0.2334527588E+02   -0.3949935532E+02    0.5040845394E+01    0.4615854263E+02    0.0000000000E+00    0    0
   16    1    4    4    0    0   -0.1471421337E+02   -0.1492973995E+02   -0.1668854904E+02    0.2679389572E+02    0.0000000000E+00    0    0
  -15    2    4    4    0    0   -0.1441699862E+00    0.3063719368E+02   -0.2689750862E+02    0.4080799103E+02    0.1777029991E+01    0    0
   16    1    6    6    0    0   -0.1960298896E+01    0.6177587986E+01    0.9944576263E+01    0.1187012863E+02    0.4323922039E-03    0    0
  -24    2    6    6    0    0   -0.6526832104E+01    0.1761523628E+02    0.2866777420E+02    0.3430563736E+02    0.1462709665E+01    0    0
 -321    1   11   11    0    0   -0.1921964169E+01    0.4831941128E+01    0.7611333370E+01    0.9231343269E+01    0.4936670363E+00    0    0
 -211    1   11   11    0    0   -0.2626349926E+01    0.6696623325E+01    0.1122983837E+02    0.1333683777E+02    0.1395678818E+00    0    0
  321    1   11   11    0    0   -0.1978517532E+01    0.6086672306E+01    0.9826601028E+01    0.1173745728E+02    0.4936670363E+00    0    0
  -16    1    9    9    0    0   -0.2311980128E+00    0.2699869156E+01   -0.2321156502E+01    0.3567984343E+01    0.2713199356E-03    0    0
   24    2    9    9    0    0    0.8702236414E-01    0.2793852997E+02   -0.2457740974E+02    0.3724161148E+02    0.1523032546E+01    0    0
  310    1   16   16    0    0   -0.3434515744E-01    0.1145833206E+02   -0.1004458141E+02    0.1524584866E+02    0.4977200031E+00    0    0
  211    1   16   16    0    0    0.1434324533E+00    0.1012360096E+02   -0.8557116508E+01    0.1325713348E+02    0.1395681947E+00    0    0
  310    1   16   16    0    0   -0.2206505090E-01    0.6356597900E+01   -0.5975712776E+01    0.8738632202E+01    0.4977200329E+00    0    0
</event>
<event>
   18 9999    1    0.9119999695E+02    0.7565275169E-02    0.1185000000E+00
   11   -1    0    0    0    0    0.0000000000E+00    0.0000000000E+00    0.8000000000E+02    0.8000000000E+02    0.5109988851E-03    0    0
  -11   -1    0    0    0    0    0.0000000000E+00    0.0000000000E+00   -0.8000000000E+02    0.8000000000E+02    0.5109988851E-03    0    0
  -24    2    1    2    0    0   -0.2980695534E+02   -0.2985470390E+02    0.5918735504E+01    0.9162284851E+02    0.8111692810E+02    0    0
   24    2    1    2    0    0    0.2980695534E+02    0.2985470390E+02   -0.5951052189E+01    0.6834484100E+02    0.5344009781E+02    0    0
   22    1    1    2    0    0   -0.1774864273E-06    0.2407625743E-06    0.3231671453E-01    0.3231671453E-01    0.0000000000E+00    0    0
   15    2    3    3    0    0   -0.5749359131E+02   -0.1894007683E+02    0.1065114784E+02    0.6148857117E+02    0.1777029991E+01    0    0
  -16    1    3    3    0    0    0.2768663597E+02   -0.1091462612E+02   -0.4732412338E+01    0.3013427544E+02    0.0000000000E+00    0    0
   16    1    4    4    0    0    0.2487853527E+01    0.7618284225E+00    0.2034998894E+02    0.2051564980E+02    0.0000000000E+00    0    0
  -15    2    4    4    0    0    0.2731910133E+02    0.2909287453E+02   -0.2630104065E+02    0.4782918930E+02    0.1777029991E+01    0    0
   16    1    6    6    0    0   -0.2489831352E+02   -0.7819446087E+01    0.4276160717E+01    0.2644532776E+02    0.8631674427E-04    0    0
  -24    2    6    6    0    0   -0.3259753418E+02   -0.1112137508E+02    0.6375405312E+01    0.3504565811E+02    0.1126102924E+01    0    0
 -321    1   11   11    0    0   -0.1282992935E+02   -0.4555795193E+01    0.2694629431E+01    0.1388766003E+02    0.4936670363E+00    0    0
  130    1   11   11    0    0   -0.1976760864E+02   -0.6565579891E+01    0.3680776119E+01    0.2115800095E+02    0.4977201223E+00    0    0
  -16    1    9    9    0    0    0.6384849548E+01    0.6564315319E+01   -0.5702163696E+01    0.1078754902E+02    0.2441406250E-03    0    0
   24    2    9    9    0    0    0.2093532753E+02    0.2252970505E+02   -0.2059991264E+02    0.3704352188E+02    0.1410893559E+01    0    0
  211    1   15   15    0    0    0.1186544228E+02    0.1317119884E+02   -0.1213763046E+02    0.2148512840E+02    0.1395682842E+00    0    0
  111    1   15   15    0    0    0.4448753357E+01    0.4470671177E+01   -0.3656812429E+01    0.7291693687E+01    0.1349642873E+00    0    0
   22    1   15   15    0    0    0.4621129036E+01    0.4887832165E+01   -0.4805467606E+01    0.8266695023E+01    0.1220703125E-03    0    0
</event>
<event>
   21 9999    1    0.9119999695E+02    0.7565275169E-02    0.1185000000E+00
   11   -1    0    0    0    0    0.0000000000E+00    0.0000000000E+00    0.8000000000E+02    0.8000000000E+02    0.5109988851E-03    0    0
  -11   -1    0    0    0    0    0.0000000000E+00    0.0000000000E+00   -0.8000000000E+02    0.8000000000E+02    0.5109988851E-03    0    0
  -24    2    1    2    0    0    0.2716858387E+00   -0.1061968803E+02   -0.2431808281E+02    0.7484903717E+02    0.6998683929E+02    0    0
   24    2    1    2    0    0   -0.1773334891E+00    0.1063344383E+02    0.2278308678E+02    0.8342313385E+02    0.7954400635E+02    0    0
   22    1    1    2    0    0   -0.1606010192E-03   -0.2002377150E-03    0.1607929468E+01    0.1607929468E+01    0.0000000000E+00    0    0
   22    1    1    2    0    0   -0.9419175237E-01   -0.1355560683E-01   -0.7293418795E-01    0.1198967770E+00    0.0000000000E+00    0    0
   15    2    3    3    0    0   -0.1119074249E+02    0.2763521385E+02   -0.1661290550E+02    0.3417724609E+02    0.1777029991E+01    0    0
  -16    1    3    3    0    0    0.1146242809E+02   -0.3825490189E+02   -0.7705176353E+01    0.4067179108E+02    0.0000000000E+00    0    0
   16    1    4    4    0    0   -0.2861739922E+02    0.3114381599E+02    0.1407819986E+01    0.4231872559E+02    0.0000000000E+00    0    0
  -15    2    4    4    0    0    0.2844006538E+02   -0.2051037025E+02    0.2137526703E+02    0.4110440826E+02    0.1777029991E+01    0    0
   16    1    7    7    0    0   -0.1827186584E+01    0.5100516319E+01   -0.3457715273E+01    0.6427259922E+01    0.1220703125E-03    0    0
   13    1    7    7    0    0   -0.5165472031E+01    0.1397726917E+02   -0.8095378876E+01    0.1695855141E+02    0.1056589037E+00    0    0
  -14    1    7    7    0    0   -0.4198523521E+01    0.8558514595E+01   -0.5060464859E+01    0.1079277897E+02    0.2363881504E-03    0    0
  -16    1   10   10    0    0    0.3300920010E+01   -0.2666461945E+01    0.2432717800E+01    0.4891237736E+01    0.4315837214E-04    0    0
   24    2   10   10    0    0    0.2514026451E+02   -0.1784471512E+02    0.1894338989E+02    0.3621479034E+02    0.1480589747E+01    0    0
  211    1   15   15    0    0    0.2636112452E+01   -0.1805857301E+01    0.2085673094E+01    0.3818340063E+01    0.1395680159E+00    0    0
  211    1   15   15    0    0    0.2988094807E+01   -0.1954478025E+01    0.2171413898E+01    0.4181293011E+01    0.1395680159E+00    0    0
  211    1   15   15    0    0    0.7406132221E+01   -0.5365416050E+01    0.5426863194E+01    0.1063526249E+02    0.1395679563E+00    0    0
 -211    1   15   15    0    0    0.4258854389E+01   -0.3172377586E+01    0.3356614351E+01    0.6283960342E+01    0.1395679861E+00    0    0
 -211    1   15   15    0    0    0.5240624428E+01   -0.3700834036E+01    0.4221467018E+01    0.7681183338E+01    0.1395679861E+00    0    0
  111    1   15   15    0    0    0.2610445738E+01   -0.1845753431E+01    0.1681359649E+01    0.3614750147E+01    0.1349639744E+00    0    0
</event>
<event>
   17 9999    1    0.9119999695E+02    0.7565275169E-02    0.1185000000E+00
   11   -1    0    0    0    0    0.0000000000E+00    0.0000000000E+00    0.8000000000E+02    0.8000000000E+02    0.5109988851E-03    0    0
  -11   -1    0    0    0    0    0.0000000000E+00    0.0000000000E+00   -0.8000000000E+02    0.8000000000E+02    0.5109988851E-03    0    0
  -24    2    1    2    0    0    0.1192864132E+02   -0.4560177624E+00   -0.2219783068E+01    0.8168970490E+02    0.8078229523E+02    0    0
   24    2    1    2    0    0   -0.1192864132E+02    0.4560177624E+00    0.2219783068E+01    0.7831029510E+02    0.7736326599E+02    0    0
   15    2    3    3    0    0   -0.3262458420E+02    0.1287397003E+02   -0.2174680948E+01    0.3518507767E+02    0.1777029991E+01    0    0
  -16    1    3    3    0    0    0.4455322266E+02   -0.1332998753E+02   -0.4510214180E-01    0.4650462723E+02    0.0000000000E+00    0    0
   16    1    4    4    0    0   -0.4317603302E+02    0.8379776001E+01   -0.7449414253E+01    0.4460811996E+02    0.0000000000E+00    0    0
  -15    2    4    4    0    0    0.3124739265E+02   -0.7923758507E+01    0.9669197083E+01    0.3370217514E+02    0.1777029991E+01    0    0
   16    1    5    5    0    0   -0.7153667212E+00    0.3351672590E+00    0.1187078580E+00    0.7988606691E+00    0.4117046483E-03    0    0
  -24    2    5    5    0    0   -0.3191049957E+02    0.1253930950E+02   -0.2293474197E+01    0.3438759995E+02    0.1316330552E+01    0    0
  111    1   10   10    0    0   -0.7417255878E+01    0.3173601866E+01   -0.7619000673E+00    0.8104698181E+01    0.1349641979E+00    0    0
  111    1   10   10    0    0   -0.1231628227E+02    0.4913990498E+01   -0.5902497172E+00    0.1327421284E+02    0.1349640191E+00    0    0
 -321    1   10   10    0    0   -0.1217696095E+02    0.4451716900E+01   -0.9413245320E+00    0.1300868797E+02    0.4936669767E+00    0    0
  -16    1    8    8    0    0    0.1878844833E+02   -0.4503241539E+01    0.5283740520E+01    0.2003004837E+02    0.1220703125E-03    0    0
  323    2    8    8    0    0    0.1246017551E+02   -0.3420828581E+01    0.4385837078E+01    0.1367345428E+02    0.8773541451E+00    0    0
  211    1   15   15    0    0    0.6503108025E+01   -0.1912026167E+01    0.2091200352E+01    0.7094988346E+01    0.1395679563E+00    0    0
  310    1   15   15    0    0    0.5957067966E+01   -0.1508802652E+01    0.2294637203E+01    0.6578466892E+01    0.4977199733E+00    0    0
</event>
<event>
   18 9999    1    0.9119999695E+02    0.7565275169E-02    0.1185000000E+00
   11   -1    0    0    0    0    0.0000000000E+00    0.0000000000E+00    0.8000000000E+02    0.8000000000E+02    0.5109988851E-03    0    0
  -11   -1    0    0    0    0    0.0000000000E+00    0.0000000000E+00   -0.8000000000E+02    0.8000000000E+02    0.5109988851E-03    0    0
  -24    2    1    2    0    0   -0.1617230797E+02    0.6033288956E+01    0.4208242893E+01    0.7690627289E+02    0.7482593536E+02    0    0
   24    2    1    2    0    0    0.1616236496E+02   -0.6039828777E+01   -0.4231750011E+01    0.8305495453E+02    0.8113271332E+02    0    0
   22    1    1    2    0    0   -0.1256693213E-04   -0.1258976044E-04    0.2648523077E-01    0.2648523636E-01    0.0000000000E+00    0    0
   22    1    1    2    0    0    0.9955992922E-02    0.6552311592E-02   -0.2977764234E-02    0.1228501834E-01    0.0000000000E+00    0    0
   15    2    3    3    0    0   -0.5956944942E+01   -0.1120169067E+02    0.3662334442E+02    0.3879935837E+02    0.1777029991E+01    0    0
  -16    1    3    3    0    0   -0.1021536350E+02    0.1723497963E+02   -0.3241510010E+02    0.3810691452E+02    0.0000000000E+00    0    0
   16    1    4    4    0    0    0.2874847221E+02    0.3073401833E+02   -0.1115022755E+02    0.4353598785E+02    0.0000000000E+00    0    0
  -15    2    4    4    0    0   -0.1258610821E+02   -0.3677384567E+02    0.6918477058E+01    0.3951897049E+02    0.1777029991E+01    0    0
   16    1    7    7    0    0   -0.1486911058E+01   -0.1925723910E+01    0.5778838158E+01    0.6270110607E+01    0.1294751128E-03    0    0
 -323    2    7    7    0    0   -0.4470268250E+01   -0.9276407242E+01    0.3084594536E+02    0.3253077316E+02    0.8624523282E+00    0    0
 -211    1   12   12    0    0   -0.1654506803E+01   -0.3497809649E+01    0.1240789509E+02    0.1299797630E+02    0.1395680755E+00    0    0
  310    1   12   12    0    0   -0.2815761089E+01   -0.5778596878E+01    0.1843804741E+02    0.1953279305E+02    0.4977199733E+00    0    0
  -16    1   10   10    0    0   -0.3596646547E+01   -0.1038519382E+02    0.2460180283E+01    0.1126235390E+02    0.1220703125E-03    0    0
   24    2   10   10    0    0   -0.8989955902E+01   -0.2639009857E+02    0.4458568573E+01    0.2825817108E+02    0.1178471208E+01    0    0
  321    1   16   16    0    0   -0.5003728390E+01   -0.1451895237E+02    0.2143869400E+01    0.1551377296E+02    0.4936670065E+00    0    0
  130    1   16   16    0    0   -0.3986227512E+01   -0.1187114620E+02    0.2314699650E+01    0.1274439812E+02    0.4977200031E+00    0    0
</event>
<event>
   18 9999    1    0.9119999695E+02    0.7565275169E-02    0.1185000000E+00
   11   -1    0    0    0    0    0.0000000000E+00    0.0000000000E+00    0.8000000000E+02    0.8000000000E+02    0.5109988851E-03    0    0
  -11   -1    0    0    0    0    0.0000000000E+00    0.0000000000E+00   -0.8000000000E+02    0.8000000000E+02    0.5109988851E-03    0    0
  -24    2    1    2    0    0    0.5547928810E+01    0.2697519493E+02    0.1505560207E+02    0.7652357483E+02    0.6979072571E+02    0    0
   24    2    1    2    0    0   -0.5547928810E+01   -0.2697519493E+02   -0.1505560207E+02    0.8347642517E+02    0.7735115814E+02    0    0
   15    2    3    3    0    0    0.3480699921E+02    0.7466524124E+01    0.2022134018E+02    0.4097970963E+02    0.1777029991E+01    0    0
  -16    1    3    3    0    0   -0.2925907135E+02    0.1950867081E+02   -0.5165737152E+01    0.3554386520E+02    0.0000000000E+00    0    0
   16    1    4    4    0    0    0.1120272160E+02   -0.3559383774E+02    0.2095567513E+02    0.4279676056E+02    0.0000000000E+00    0    0
  -15    2    4    4    0    0   -0.1675065041E+02    0.8618643761E+01   -0.3601127625E+02    0.4067966461E+02    0.1777029991E+01    0    0
   16    1    5    5    0    0    0.2672823429E+01    0.7346263528E+00    0.1787773609E+01    0.3298453569E+01    0.3398293629E-03    0    0
  -24    2    5    5    0    0    0.3213554764E+02    0.6732191563E+01    0.1843436050E+02    0.3768286896E+02    0.1468742013E+01    0    0
  221    1   10   10    0    0    0.9201616287E+01    0.2153553963E+01    0.5156443119E+01    0.1077950001E+02    0.5487999320E+00    0    0
 -211    1   10   10    0    0    0.1218214798E+02    0.2596104145E+01    0.7424293041E+01    0.1450117588E+02    0.1395679861E+00    0    0
  111    1   10   10    0    0    0.1075178528E+02    0.1982534051E+01    0.5853626728E+01    0.1240219688E+02    0.1349641234E+00    0    0
  -16    1    8    8    0    0   -0.7164434195E+00    0.1425939947E+00   -0.1491971731E+01    0.1661205530E+01    0.4901848733E-03    0    0
   24    2    8    8    0    0   -0.1603486443E+02    0.8476387978E+01   -0.3452072144E+02    0.3902006149E+02    0.1385204434E+01    0    0
  211    1   15   15    0    0   -0.7258615971E+01    0.3739005089E+01   -0.1477551937E+02    0.1688203430E+02    0.1395677924E+00    0    0
  310    1   15   15    0    0   -0.7020418644E+01    0.4038705826E+01   -0.1583640766E+02    0.1779429626E+02    0.4977199137E+00    0    0
  111    1   15   15    0    0   -0.1755831122E+01    0.6986779571E+00   -0.3908795357E+01    0.4343729973E+01    0.1349640340E+00    0    0
</event>
<event>
   24 9999    1    0.9119999695E+02    0.7565275169E-02    0.1185000000E+00
   11   -1    0    0    0    0    0.0000000000E+00    0.0000000000E+00    0.8000000000E+02    0.8000000000E+02    0.5109988851E-03    0    0
  -11   -1    0    0    0    0    0.0000000000E+00    0.0000000000E+00   -0.8000000000E+02    0.8000000000E+02    0.5109988851E-03    0    0
  -24    2    1    2    0    0   -0.1208114338E+02   -0.1784411669E+01    0.2072729683E+02    0.8108112335E+02    0.7742990112E+02    0    0
   24    2    1    2    0    0    0.1208114338E+02    0.1784411669E+01   -0.2072729683E+02    0.7891887665E+02    0.7516268921E+02    0    0
   15    2    3    3    0    0   -0.3455524826E+02    0.2585348845E+01    0.3869821167E+02    0.5197555923E+02    0.1777029991E+01    0    0
  -16    1    3    3    0    0    0.2247410393E+02   -0.4369760513E+01   -0.1797091675E+02    0.2910556602E+02    0.0000000000E+00    0    0
   16    1    4    4    0    0   -0.1645874023E+02    0.3058795166E+02   -0.1535542870E+02    0.3797765350E+02    0.0000000000E+00    0    0
  -15    2    4    4    0    0    0.2853988266E+02   -0.2880354118E+02   -0.5371867180E+01    0.4094122314E+02    0.1777029991E+01    0    0
   16    1    5    5    0    0   -0.5904493809E+01    0.2965184450E+00    0.6375542641E+01    0.8694740295E+01    0.4315837214E-04    0    0
  -24    2    5    5    0    0   -0.2865211296E+02    0.2288932085E+01    0.3232419205E+02    0.4328286362E+02    0.1539469123E+01    0    0
 -211    1   10   10    0    0   -0.6426862717E+01    0.2934451401E+00    0.7238755703E+01    0.9685543060E+01    0.1395679861E+00    0    0
 -211    1   10   10    0    0   -0.1812065601E+01    0.1610542238E+00    0.1939007521E+01    0.2662470579E+01    0.1395680159E+00    0    0
  211    1   10   10    0    0   -0.2712628365E+01    0.1732618213E+00    0.3330017567E+01    0.4300798893E+01    0.1395679712E+00    0    0
  111    1   10   10    0    0   -0.1006116199E+02    0.6896373034E+00    0.1143372059E+02    0.1524633598E+02    0.1349639744E+00    0    0
  111    1   10   10    0    0   -0.2135950804E+01    0.2755096853E+00    0.2431119919E+01    0.3250653744E+01    0.1349640042E+00    0    0
  111    1   10   10    0    0   -0.5503443241E+01    0.6960238814E+00    0.5951571941E+01    0.8137061119E+01    0.1349640042E+00    0    0
  -16    1    8    8    0    0    0.3550090075E+01   -0.3532566309E+01   -0.3489267826E+00    0.5020349979E+01    0.1220703125E-03    0    0
   24    2    8    8    0    0    0.2499091721E+02   -0.2527210999E+02   -0.5023151875E+01    0.3592248535E+02    0.1402651191E+01    0    0
  211    1   18   18    0    0    0.4651378155E+01   -0.4461328506E+01   -0.8395074010E+00    0.6501001358E+01    0.1395680159E+00    0    0
  211    1   18   18    0    0    0.5225415230E+01   -0.5286993980E+01   -0.1385712981E+01    0.7562866688E+01    0.1395680606E+00    0    0
  211    1   18   18    0    0    0.2608454227E+01   -0.2729983091E+01   -0.4690248668E+00    0.3807401180E+01    0.1395680159E+00    0    0
 -211    1   18   18    0    0    0.4379322052E+01   -0.4471964836E+01   -0.7605225444E+00    0.6306726933E+01    0.1395680010E+00    0    0
 -211    1   18   18    0    0    0.2982548475E+01   -0.3076051712E+01   -0.7319044471E+00    0.4348890781E+01    0.1395680159E+00    0    0
  111    1   18   18    0    0    0.5143799305E+01   -0.5245786667E+01   -0.8364796638E+00    0.7395597458E+01    0.1349640191E+00    0    0
</event>
<event>
   19 9999    1    0.9119999695E+02    0.7565275169E-02    0.1185000000E+00
   11   -1    0    0    0    0    0.0000000000E+00    0.0000000000E+00    0.8000000000E+02    0.8000000000E+02    0.5109988851E-03    0    0
  -11   -1    0    0    0    0    0.0000000000E+00    0.0000000000E+00   -0.8000000000E+02    0.8000000000E+02    0.5109988851E-03    0    0
  -24    2    1    2    0    0    0.8217598915E+01    0.4890641689E+01   -0.5083734035E+01    0.7882520294E+02    0.7807765961E+02    0    0
   24    2    1    2    0    0   -0.8217598915E+01   -0.4890641689E+01    0.5083734035E+01    0.8117479706E+02    0.8044908905E+02    0    0
   15    2    3    3    0    0    0.2461798477E+02   -0.2959458160E+02    0.6142673016E+01    0.3902274704E+02    0.1777029991E+01    0    0
  -16    1    3    3    0    0   -0.1640038681E+02    0.3448522186E+02   -0.1122640705E+02    0.3980245590E+02    0.0000000000E+00    0    0
   16    1    4    4    0    0    0.5280552864E+01   -0.3652868652E+02    0.2182524872E+02    0.4287855530E+02    0.0000000000E+00    0    0
  -15    2    4    4    0    0   -0.1349815178E+02    0.3163804436E+02   -0.1674151611E+02    0.3829624176E+02    0.1777029991E+01    0    0
   16    1    5    5    0    0    0.2410173416E+01   -0.3365307808E+01    0.7297030091E+00    0.4203177452E+01    0.6076754071E-03    0    0
  -24    2    5    5    0    0    0.2220878029E+02   -0.2623043633E+02    0.5413211823E+01    0.3482110214E+02    0.1393064260E+01    0    0
 -211    1   10   10    0    0    0.3344583035E+01   -0.3494390726E+01    0.9781289697E+00    0.4936923981E+01    0.1395681947E+00    0    0
  111    1   10   10    0    0    0.6742401123E+01   -0.7611204624E+01    0.1658850789E+01    0.1030341721E+02    0.1349639595E+00    0    0
   22    1   10   10    0    0    0.1212179470E+02   -0.1512483978E+02    0.2776231527E+01    0.1958075905E+02    0.1220703125E-03    0    0
  -16    1    8    8    0    0   -0.6639735699E+01    0.1540330029E+02   -0.8372267723E+01    0.1874680328E+02    0.1364787604E-03    0    0
   24    2    8    8    0    0   -0.6858947754E+01    0.1623599052E+02   -0.8369906425E+01    0.1955094719E+02    0.1237598419E+01    0    0
  111    1   15   15    0    0   -0.1541770220E+01    0.4395021915E+01   -0.2504528999E+01    0.5290004730E+01    0.1349640787E+00    0    0
  111    1   15   15    0    0   -0.2016977072E+01    0.4810907841E+01   -0.2425529003E+01    0.5754514694E+01    0.1349640936E+00    0    0
  111    1   15   15    0    0   -0.1860179663E+01    0.4224187374E+01   -0.2198033094E+01    0.5114058495E+01    0.1349640042E+00    0    0
  211    1   15   15    0    0   -0.1440020800E+01    0.2805873394E+01   -0.1241815805E+01    0.3392369747E+01    0.1395678967E+00    0    0
</event>
<event>
   18 9999    1    0.9119999695E+02    0.7565275169E-02    0.1185000000E+00
   11   -1    0    0    0    0    0.0000000000E+00    0.0000000000E+00    0.8000000000E+02    0.8000000000E+02    0.5109988851E-03    0    0
  -11   -1    0    0    0    0    0.0000000000E+00    0.0000000000E+00   -0.8000000000E+02    0.8000000000E+02    0.5109988851E-03    0    0
  -24    2    1    2    0    0    0.1191476583E+01   -0.3320339584E+02    0.4953046799E+02    0.9839097595E+02    0.7825363159E+02    0    0
   24    2    1    2    0    0   -0.1191476583E+01    0.3320339584E+02   -0.4953046799E+02    0.6160902786E+02    0.1544408798E+02    0    0
   15    2    3    3    0    0   -0.3308009338E+02   -0.3077674294E+02    0.4489929962E+02    0.6372287750E+02    0.1777029991E+01    0    0
  -16    1    3    3    0    0    0.3427156830E+02   -0.2426654577E+01    0.4631166935E+01    0.3466809464E+02    0.0000000000E+00    0    0
   16    1    4    4    0    0    0.6201287270E+01    0.1956535530E+02   -0.3306457138E+02    0.3891689682E+02    0.0000000000E+00    0    0
  -15    2    4    4    0    0   -0.7392763615E+01    0.1363804245E+02   -0.1646589470E+02    0.2269212723E+02    0.1777029991E+01    0    0
   16    1    5    5    0    0   -0.1917944312E+01   -0.1741910934E+01    0.2257617950E+01    0.3436510324E+01    0.4882812500E-03    0    0
  -24    2    5    5    0    0   -0.3116344833E+02   -0.2903604126E+02    0.4264344788E+02    0.6028887558E+02    0.1425673246E+01    0    0
  310    1   10   10    0    0   -0.9721985817E+01   -0.9233057976E+01    0.1337508965E+02    0.1894484329E+02    0.4977199733E+00    0    0
 -211    1   10   10    0    0   -0.1035595322E+02   -0.9597347260E+01    0.1452624416E+02    0.2025798798E+02    0.1395679265E+00    0    0
  130    1   10   10    0    0   -0.1108550930E+02   -0.1020563602E+02    0.1474211311E+02    0.2108604050E+02    0.4977200627E+00    0    0
  -16    1    8    8    0    0   -0.7034888864E+00    0.8757101297E+00   -0.1486677647E+01    0.1863323689E+01    0.1525878906E-03    0    0
   24    2    8    8    0    0   -0.6689566135E+01    0.1276286888E+02   -0.1497986603E+02    0.2082969856E+02    0.1356032848E+01    0    0
  111    1   15   15    0    0   -0.1593693972E+01    0.2644904137E+01   -0.3355258703E+01    0.4561946392E+01    0.1349639148E+00    0    0
  111    1   15   15    0    0   -0.8944969177E+00    0.1139235139E+01   -0.1507677794E+01    0.2095062971E+01    0.1349636465E+00    0    0
  321    1   15   15    0    0   -0.4201375484E+01    0.8978730202E+01   -0.1011692905E+02    0.1417268944E+02    0.4936670661E+00    0    0
</event>
<event>
   18 9999    1    0.9119999695E+02    0.7565275169E-02    0.1185000000E+00
   11   -1    0    0    0    0    0.0000000000E+00    0.0000000000E+00    0.8000000000E+02    0.8000000000E+02    0.5109988851E-03    0    0
  -11   -1    0    0    0    0    0.0000000000E+00    0.0000000000E+00   -0.8000000000E+02    0.8000000000E+02    0.5109988851E-03    0    0
  -24    2    1    2    0    0   -0.4668039322E+01    0.1338326454E+02    0.1101159477E+02    0.7648693085E+02    0.7435114288E+02    0    0
   24    2    1    2    0    0    0.4668039322E+01   -0.1338326454E+02   -0.1101159477E+02    0.8351306915E+02    0.8156148529E+02    0    0
   15    2    3    3    0    0   -0.2665812302E+02   -0.3133898735E+01   -0.2111402321E+02    0.3419702911E+02    0.1777029991E+01    0    0
  -16    1    3    3    0    0    0.2199008369E+02    0.1651716423E+02    0.3212561798E+02    0.4228990173E+02    0.0000000000E+00    0    0
   16    1    4    4    0    0    0.6362365723E+01   -0.9184641838E+01    0.3525930405E+02    0.3698723984E+02    0.0000000000E+00    0    0
  -15    2    4    4    0    0   -0.1694326639E+01   -0.4198623180E+01   -0.4627089691E+02    0.4652583313E+02    0.1777029991E+01    0    0
   16    1    5    5    0    0   -0.1461883903E+01   -0.2960161269E+00   -0.1356350899E+01    0.2016040087E+01    0.3200710635E-03    0    0
  -24    2    5    5    0    0   -0.2519728851E+02   -0.2838006020E+01   -0.1975850487E+02    0.3218233490E+02    0.1531819940E+01    0    0
 -211    1   10   10    0    0   -0.1005008221E+02   -0.1525661826E+01   -0.7774826527E+01    0.1279840660E+02    0.1395681053E+00    0    0
  310    1   10   10    0    0   -0.8293231010E+01   -0.7244425416E+00   -0.7001674175E+01    0.1088915348E+02    0.4977200627E+00    0    0
  111    1   10   10    0    0   -0.6853976250E+01   -0.5879017711E+00   -0.4982004166E+01    0.8494774818E+01    0.1349638700E+00    0    0
  -16    1    8    8    0    0   -0.1091040149E+00   -0.5681541562E+00   -0.1142221069E+02    0.1143685246E+02    0.4069497227E-03    0    0
20213    2    8    8    0    0   -0.1585289240E+01   -0.3630634308E+01   -0.3485050964E+02    0.3509081268E+02    0.1054690480E+01    0    0
  111    1   15   15    0    0   -0.1882742047E+00   -0.8674871922E+00   -0.9507711411E+01    0.9550013542E+01    0.1349641085E+00    0    0
  111    1   15   15    0    0   -0.1984542161E+00   -0.3315483630E+00   -0.5170433044E+01    0.5186608315E+01    0.1349638849E+00    0    0
  211    1   15   15    0    0   -0.1198560596E+01   -0.2431598186E+01   -0.2017236137E+02    0.2035418510E+02    0.1395681947E+00    0    0
</event>
<event>
   19 9999    1    0.9119999695E+02    0.7565275169E-02    0.1185000000E+00
   11   -1    0    0    0    0    0.0000000000E+00    0.0000000000E+00    0.8000000000E+02    0.8000000000E+02    0.5109988851E-03    0    0
  -11   -1    0    0    0    0    0.0000000000E+00    0.0000000000E+00   -0.8000000000E+02    0.8000000000E+02    0.5109988851E-03    0    0
  -24    2    1    2    0    0   -0.3573589325E+01   -0.9962733269E+01    0.2396529388E+02    0.7449510956E+02    0.6973635101E+02    0    0
   24    2    1    2    0    0    0.3573589325E+01    0.9962733269E+01   -0.2396529388E+02    0.8550489044E+02    0.8139241028E+02    0    0
   15    2    3    3    0    0    0.9025579453E+01    0.1552958202E+02    0.3852859879E+02    0.4254691315E+02    0.1777029991E+01    0    0
  -16    1    3    3    0    0   -0.1259916878E+02   -0.2549231529E+02   -0.1456330681E+02    0.3194819450E+02    0.0000000000E+00    0    0
   16    1    4    4    0    0   -0.2741404915E+02    0.1213313770E+02    0.1668830872E+02    0.3431097031E+02    0.0000000000E+00    0    0
  -15    2    4    4    0    0    0.3098763847E+02   -0.2170403719E+01   -0.4065360260E+02    0.5119392014E+02    0.1777029991E+01    0    0
   16    1    5    5    0    0    0.4281226099E+00    0.1161302447E+01    0.2351000071E+01    0.2656899214E+01    0.5285799489E-04    0    0
   13    1    5    5    0    0    0.5676977634E+01    0.8210789680E+01    0.2205567360E+02    0.2420968819E+02    0.1056591049E+00    0    0
  -14    1    5    5    0    0    0.2920834303E+01    0.6158102036E+01    0.1412344360E+02    0.1568200111E+02    0.1614838402E-03    0    0
  -16    1    8    8    0    0    0.2191633224E+01    0.4203258082E-01   -0.2859985590E+01    0.3603406906E+01    0.7197556261E-04    0    0
   24    2    8    8    0    0    0.2879722404E+02   -0.2212521791E+01   -0.3779521561E+02    0.4759252930E+02    0.1547597885E+01    0    0
  211    1   13   13    0    0    0.1141403556E+01   -0.9247443080E-01   -0.1417992592E+01    0.1827986836E+01    0.1395679861E+00    0    0
  211    1   13   13    0    0    0.3930304050E+01   -0.2066904306E+00   -0.4963745117E+01    0.6336265087E+01    0.1395680010E+00    0    0
  211    1   13   13    0    0    0.5398447037E+01   -0.6957259178E+00   -0.6986081600E+01    0.8857317924E+01    0.1395679712E+00    0    0
 -211    1   13   13    0    0    0.4372259140E+01   -0.3463870585E+00   -0.5608714104E+01    0.7121361256E+01    0.1395679861E+00    0    0
 -211    1   13   13    0    0    0.4166746140E+01   -0.1178065911E+00   -0.5795374393E+01    0.7140132427E+01    0.1395679861E+00    0    0
  111    1   13   13    0    0    0.9788064957E+01   -0.7534373403E+00   -0.1302330971E+02    0.1630946732E+02    0.1349639893E+00    0    0
</event>
<event>
   18 9999    1    0.9119999695E+02    0.7565275169E-02    0.1185000000E+00
   11   -1    0    0    0    0    0.0000000000E+00    0.0000000000E+00    0.8000000000E+02    0.8000000000E+02    0.5109988851E-03    0    0
  -11   -1    0    0    0    0    0.0000000000E+00    0.0000000000E+00   -0.8000000000E+02    0.8000000000E+02    0.5109988851E-03    0    0
  -24    2    1    2    0    0    0.1492328644E+02    0.4196851254E+01   -0.1035193062E+02    0.8121037292E+02    0.7904203796E+02    0    0
   24    2    1    2    0    0   -0.1492328644E+02   -0.4196851254E+01    0.1035193062E+02    0.7878962708E+02    0.7655276489E+02    0    0
   15    2    3    3    0    0    0.3286948442E+01   -0.2110688019E+02   -0.2459201431E+02    0.3262253189E+02    0.1777029991E+01    0    0
  -16    1    3    3    0    0    0.1457035446E+02    0.3130875206E+02    0.1987663841E+02    0.3984487534E+02    0.0000000000E+00    0    0
   22    1    3    3    0    0   -0.2934016466E+01   -0.6005021572E+01   -0.5636553764E+01    0.8742967606E+01    0.0000000000E+00    0    0
   16    1    4    4    0    0   -0.1441032887E+02   -0.3919846344E+02   -0.1498102784E+01    0.4179020691E+02    0.0000000000E+00    0    0
  -15    2    4    4    0    0   -0.5129581094E+00    0.3500161362E+02    0.1185003281E+02    0.3699942017E+02    0.1777029991E+01    0    0
   16    1    5    5    0    0    0.4852489829E+00   -0.3106002092E+01   -0.4473546982E+01    0.5467662811E+01    0.0000000000E+00    0    0
  -24    2    5    5    0    0    0.2801831484E+01   -0.1800173187E+02   -0.2011946487E+02    0.2715618706E+02    0.8677946329E+00    0    0
  111    1   11   11    0    0    0.9132086039E+00   -0.6707140446E+01   -0.7795886040E+01    0.1032539272E+02    0.1349639893E+00    0    0
  111    1   11   11    0    0    0.8583277464E+00   -0.4875442982E+01   -0.5301741600E+01    0.7254884243E+01    0.1349639893E+00    0    0
  111    1   11   11    0    0    0.2815594077E+00   -0.2122502089E+01   -0.2424681187E+01    0.3237527370E+01    0.1349640042E+00    0    0
 -211    1   11   11    0    0    0.7487363219E+00   -0.4296647549E+01   -0.4597156525E+01    0.6338384151E+01    0.1395679712E+00    0    0
  -16    1    9    9    0    0    0.7315570861E-01    0.7365982056E+01    0.1958860874E+01    0.7622347355E+01    0.2990099892E-03    0    0
  -11    1    9    9    0    0   -0.7888233662E+00    0.2616184998E+02    0.9320899010E+01    0.2778387642E+02    0.5459150416E-03    0    0
   12    1    9    9    0    0    0.2026894093E+00    0.1475157976E+01    0.5707389116E+00    0.1594652653E+01    0.8074192010E-04    0    0
</event>
<event>
   22 9999    1    0.9119999695E+02    0.7565275169E-02    0.1185000000E+00
   11   -1    0    0    0    0    0.0000000000E+00    0.0000000000E+00    0.8000000000E+02    0.8000000000E+02    0.5109988851E-03    0    0
  -11   -1    0    0    0    0    0.0000000000E+00    0.0000000000E+00   -0.8000000000E+02    0.8000000000E+02    0.5109988851E-03    0    0
  -24    2    1    2    0    0    0.1068278694E+02    0.6521497726E+01    0.1616937876E+01    0.7887974548E+02    0.7786365509E+02    0    0
   24    2    1    2    0    0   -0.1068278694E+02   -0.6521497726E+01   -0.1616937876E+01    0.8112025452E+02    0.8013256836E+02    0    0
   15    2    3    3    0    0   -0.1594219017E+02   -0.2977955246E+02    0.1567342043E+01    0.3386132812E+02    0.1777029991E+01    0    0
  -16    1    3    3    0    0    0.2662497711E+02    0.3630105209E+02    0.4959581047E-01    0.4501842117E+02    0.0000000000E+00    0    0
   16    1    4    4    0    0   -0.3965251160E+02   -0.1688485909E+02    0.1558075333E+02    0.4582772064E+02    0.0000000000E+00    0    0
  -15    2    4    4    0    0    0.2896972466E+02    0.1036336136E+02   -0.1719769096E+02    0.3529253006E+02    0.1777029991E+01    0    0
   16    1    5    5    0    0   -0.1580228925E+01   -0.2838401794E+01   -0.5579530448E-01    0.3249116898E+01    0.0000000000E+00    0    0
  -24    2    5    5    0    0   -0.1436258793E+02   -0.2694232178E+02    0.1623198986E+01    0.3061354256E+02    0.1543245316E+01    0    0
 -211    1   10   10    0    0   -0.2274783850E+01   -0.3828139544E+01    0.2266053110E+00    0.4460955620E+01    0.1395679861E+00    0    0
 -211    1   10   10    0    0   -0.9302739501E+00   -0.1674260378E+01    0.1025584489E+00    0.1923162699E+01    0.1395679861E+00    0    0
  211    1   10   10    0    0   -0.1765520453E+01   -0.3381850243E+01    0.5185193568E-01    0.3817871332E+01    0.1395679712E+00    0    0
  111    1   10   10    0    0   -0.4142180443E+01   -0.8158942223E+01    0.7451884747E+00    0.9181476593E+01    0.1349639297E+00    0    0
  111    1   10   10    0    0   -0.2382539749E+01   -0.4972673416E+01    0.1458107084E+00    0.5517558575E+01    0.1349638999E+00    0    0
  111    1   10   10    0    0   -0.2867289066E+01   -0.4926455498E+01    0.3511839807E+00    0.5712517738E+01    0.1349639595E+00    0    0
  -16    1    8    8    0    0    0.2668571472E+01    0.6039149165E+00   -0.1468895435E+01    0.3105421305E+01    0.5438853987E-03    0    0
   24    2    8    8    0    0    0.2630229378E+02    0.9759854317E+01   -0.1572947216E+02    0.3218849564E+02    0.1271865964E+01    0    0
  211    1   18   18    0    0    0.8664648056E+01    0.3214773893E+01   -0.5079374790E+01    0.1054658413E+02    0.1395691782E+00    0    0
  211    1   18   18    0    0    0.1231073380E+02    0.4563825607E+01   -0.7130295277E+01    0.1494132710E+02    0.1395684332E+00    0    0
 -211    1   18   18    0    0    0.2048109531E+01    0.9413317442E+00   -0.1337947607E+01    0.2624964952E+01    0.1395679563E+00    0    0
  111    1   18   18    0    0    0.3278796196E+01    0.1039920926E+01   -0.2181850910E+01    0.4075613976E+01    0.1349640936E+00    0    0
</event>
<event>
   16 9999    1    0.9119999695E+02    0.7565275169E-02    0.1185000000E+00
   11   -1    0    0    0    0    0.0000000000E+00    0.0000000000E+00    0.8000000000E+02    0.8000000000E+02    0.5109988851E-03    0    0
  -11   -1    0    0    0    0    0.0000000000E+00    0.0000000000E+00   -0.8000000000E+02    0.8000000000E+02    0.5109988851E-03    0    0
  -24    2    1    2    0    0    0.2016935921E+02   -0.6613778114E+01    0.6357497215E+01    0.7588864136E+02    0.7258183289E+02    0    0
   24    2    1    2    0    0   -0.2016975403E+02    0.6614891529E+01   -0.5171686649E+01    0.8292554474E+02    0.7999577332E+02    0    0
   22    1    1    2    0    0    0.3956821165E-03   -0.1113089384E-02   -0.1185810328E+01    0.1185810924E+01    0.0000000000E+00    0    0
   15    2    3    3    0    0    0.3614112473E+02   -0.2250257874E+02    0.2248740387E+02    0.4818078613E+02    0.1777029991E+01    0    0
  -16    1    3    3    0    0   -0.1597176647E+02    0.1588880062E+02   -0.1612990761E+02    0.2770785522E+02    0.0000000000E+00    0    0
   16    1    4    4    0    0    0.3035622406E+02    0.4479501843E+00    0.5587911129E+01    0.3086949539E+02    0.0000000000E+00    0    0
  -15    2    4    4    0    0   -0.5052597809E+02    0.6166941166E+01   -0.1075959778E+02    0.5205605316E+02    0.1777029991E+01    0    0
   16    1    6    6    0    0    0.2522256470E+02   -0.1536861420E+02    0.1485724545E+02    0.3306221390E+02    0.3860202269E-03    0    0
 -321    1    6    6    0    0    0.1091998386E+02   -0.7134851933E+01    0.7631044388E+01    0.1512047291E+02    0.4936669767E+00    0    0
  -16    1    9    9    0    0   -0.1471168327E+02    0.1494178891E+01   -0.3603486061E+01    0.1522009468E+02    0.4048614355E-03    0    0
   24    2    9    9    0    0   -0.3581628418E+02    0.4673005104E+01   -0.7156535149E+01    0.3683800507E+02    0.1086003423E+01    0    0
  211    1   13   13    0    0   -0.1476197243E+02    0.1892880082E+01   -0.3100327969E+01    0.1520297146E+02    0.1395682544E+00    0    0
  111    1   13   13    0    0   -0.9326008797E+01    0.1349825025E+01   -0.2161916256E+01    0.9668949127E+01    0.1349641681E+00    0    0
   22    1   13   13    0    0   -0.1172830105E+02    0.1430299520E+01   -0.1894290686E+01    0.1196608257E+02    0.1726334885E-03    0    0
</event>
<event>
   21 9999    1    0.9119999695E+02    0.7565275169E-02    0.1185000000E+00
   11   -1    0    0    0    0    0.0000000000E+00    0.0000000000E+00    0.8000000000E+02    0.8000000000E+02    0.5109988851E-03    0    0
  -11   -1    0    0    0    0    0.0000000000E+00    0.0000000000E+00   -0.8000000000E+02    0.8000000000E+02    0.5109988851E-03    0    0
  -24    2    1    2    0    0    0.1311925030E+02    0.9658641815E+01    0.1415232755E-01    0.8193977356E+02    0.8030393982E+02    0    0
   24    2    1    2    0    0   -0.1311925030E+02   -0.9658641815E+01   -0.1527344063E-01    0.7805910492E+02    0.7634015656E+02    0    0
   22    1    1    2    0    0    0.1318088128E-07   -0.2438160962E-07    0.1121113426E-02    0.1121113426E-02    0.0000000000E+00    0    0
   15    2    3    3    0    0   -0.2417306328E+02   -0.1578770924E+02    0.1717534256E+02    0.3364132690E+02    0.1777029991E+01    0    0
  -16    1    3    3    0    0    0.3729231262E+02    0.2544635010E+02   -0.1716119003E+02    0.4829844666E+02    0.0000000000E+00    0    0
   16    1    4    4    0    0   -0.3782342148E+02    0.7227662563E+01   -0.1862517548E+02    0.4277554703E+02    0.0000000000E+00    0    0
  -15    2    4    4    0    0    0.2470416832E+02   -0.1688630295E+02    0.1860990143E+02    0.3528355789E+02    0.1777029991E+01    0    0
   16    1    6    6    0    0   -0.5871512890E+00   -0.3351075649E+00    0.3213641346E+00    0.7485443354E+00    0.3737624866E-04    0    0
  -24    2    6    6    0    0   -0.2358686256E+02   -0.1545322227E+02    0.1685465431E+02    0.3289410782E+02    0.1673543572E+01    0    0
 -211    1   11   11    0    0   -0.3216263294E+01   -0.1974461198E+01    0.2439377308E+01    0.4495874405E+01    0.1395680010E+00    0    0
 -211    1   11   11    0    0   -0.8624869347E+01   -0.5085486889E+01    0.5958975792E+01    0.1165244293E+02    0.1395681053E+00    0    0
 -211    1   11   11    0    0   -0.4898655415E+01   -0.3345388412E+01    0.3705657959E+01    0.6995700836E+01    0.1395680159E+00    0    0
  211    1   11   11    0    0   -0.3428204060E+01   -0.2508731127E+01    0.2240284443E+01    0.4804650784E+01    0.1395679563E+00    0    0
  211    1   11   11    0    0   -0.3418870449E+01   -0.2539155483E+01    0.2510359526E+01    0.4945439339E+01    0.1395680308E+00    0    0
  -16    1    9    9    0    0    0.5163095951E+01   -0.3762700558E+01    0.4284109592E+01    0.7692143440E+01    0.1220703125E-03    0    0
   24    2    9    9    0    0    0.1954204559E+02   -0.1312426853E+02    0.1432652569E+02    0.2759280586E+02    0.1405549645E+01    0    0
  211    1   18   18    0    0    0.6907131195E+01   -0.5184892654E+01    0.5490722179E+01    0.1023518848E+02    0.1395678222E+00    0    0
  310    1   18   18    0    0    0.6416323185E+01   -0.4068510056E+01    0.4435833454E+01    0.8811715126E+01    0.4977200627E+00    0    0
  111    1   18   18    0    0    0.6218591213E+01   -0.3870864868E+01    0.4399969578E+01    0.8545900345E+01    0.1349639148E+00    0    0
</event>
<event>
   19 9999    1    0.9119999695E+02    0.7565275169E-02    0.1185000000E+00
   11   -1    0    0    0    0    0.0000000000E+00    0.0000000000E+00    0.8000000000E+02    0.8000000000E+02    0.5109988851E-03    0    0
  -11   -1    0    0    0    0    0.0000000000E+00    0.0000000000E+00   -0.8000000000E+02    0.8000000000E+02    0.5109988851E-03    0    0
  -24    2    1    2    0    0    0.1623855782E+02   -0.1203844905E+01   -0.7501826763E+01    0.7790464020E+02    0.7581369019E+02    0    0
   24    2    1    2    0    0   -0.1623855782E+02    0.1203844905E+01    0.7501906872E+01    0.8209528351E+02    0.8011376953E+02    0    0
   22    1    1    2    0    0   -0.3335694387E-08   -0.5995121910E-07   -0.8037838415E-04    0.8037840598E-04    0.0000000000E+00    0    0
   15    2    3    3    0    0    0.6356163025E+01    0.1835875702E+02    0.2922319603E+02    0.3513684464E+02    0.1777029991E+01    0    0
  -16    1    3    3    0    0    0.9882395744E+01   -0.1956260300E+02   -0.3672502136E+02    0.4276779556E+02    0.0000000000E+00    0    0
   16    1    4    4    0    0    0.7147242546E+01    0.3183025742E+02    0.2363269424E+02    0.4028340530E+02    0.0000000000E+00    0    0
  -15    2    4    4    0    0   -0.2338580132E+02   -0.3062641335E+02   -0.1613078690E+02    0.4181187439E+02    0.1777029991E+01    0    0
   16    1    6    6    0    0    0.1038476825E+01    0.3677932978E+01    0.5676166058E+01    0.6842842102E+01    0.2571456716E-03    0    0
  -24    2    6    6    0    0    0.5317936420E+01    0.1468154812E+02    0.2354818153E+02    0.2829538536E+02    0.1511208415E+01    0    0
  221    1   11   11    0    0    0.3747123480E+01    0.9967644691E+01    0.1616398811E+02    0.1936415672E+02    0.5488000512E+00    0    0
 -211    1   11   11    0    0    0.1507229567E+01    0.3765200853E+01    0.5800657272E+01    0.7079236031E+01    0.1395679414E+00    0    0
  111    1   11   11    0    0    0.6358360499E-01    0.9487025738E+00    0.1583535790E+01    0.1851993680E+01    0.1349642575E+00    0    0
  -16    1    9    9    0    0   -0.2735130548E+01   -0.3814107180E+01   -0.2124433994E+01    0.5151851177E+01    0.1779465238E-03    0    0
   24    2    9    9    0    0   -0.2065159035E+02   -0.2681351089E+02   -0.1400698853E+02    0.3666167068E+02    0.1558774590E+01    0    0
  310    1   16   16    0    0   -0.9326985359E+01   -0.1236383533E+02   -0.6397768497E+01    0.1676413536E+02    0.4977201521E+00    0    0
  211    1   16   16    0    0   -0.5572320223E+00   -0.8796541095E+00   -0.3346673548E+00    0.1102624297E+01    0.1395680606E+00    0    0
  310    1   16   16    0    0   -0.1076737309E+02   -0.1357002163E+02   -0.7274552345E+01    0.1879491043E+02    0.4977200329E+00    0    0
</event>
<event>
   23 9999    1    0.9119999695E+02    0.7565275169E-02    0.1185000000E+00
   11   -1    0    0    0    0    0.0000000000E+00    0.0000000000E+00    0.8000000000E+02    0.8000000000E+02    0.5109988851E-03    0    0
  -11   -1    0    0    0    0    0.0000000000E+00    0.0000000000E+00   -0.8000000000E+02    0.8000000000E+02    0.5109988851E-03    0    0
  -24    2    1    2    0    0    0.6442606449E+01   -0.7597299099E+01    0.9023324013E+01    0.8246357727E+02    0.8136089325E+02    0    0
   24    2    1    2    0    0   -0.8991044998E+01    0.7828596115E+01   -0.1032841301E+02    0.7466391754E+02    0.7297875214E+02    0    0
   22    1    1    2    0    0    0.2548438549E+01   -0.2312971503E+00    0.1305089474E+01    0.2872506857E+01    0.0000000000E+00    0    0
   15    2    3    3    0    0   -0.1226459026E+02   -0.2453986740E+02    0.3614701843E+02    0.4541354752E+02    0.1777029991E+01    0    0
  -16    1    3    3    0    0    0.1870719719E+02    0.1694256783E+02   -0.2712369537E+02    0.3705002975E+02    0.0000000000E+00    0    0
   16    1    4    4    0    0   -0.1091566277E+02   -0.2668455887E+02    0.1430114841E+02    0.3218291855E+02    0.0000000000E+00    0    0
  -15    2    4    4    0    0    0.1924618006E+01    0.3451315689E+02   -0.2462956238E+02    0.4248099899E+02    0.1777029991E+01    0    0
   16    1    6    6    0    0   -0.1041302800E+01   -0.2281066656E+01    0.3492504120E+01    0.4299437523E+01    0.0000000000E+00    0    0
  -24    2    6    6    0    0   -0.1122377014E+02   -0.2225976753E+02    0.3265594101E+02    0.4111589813E+02    0.1623685479E+01    0    0
 -211    1   11   11    0    0   -0.7158672214E+00   -0.1518373132E+01    0.2386904716E+01    0.2921423674E+01    0.1395680010E+00    0    0
 -211    1   11   11    0    0   -0.2829937935E+01   -0.4997867107E+01    0.7468489647E+01    0.9422581673E+01    0.1395680755E+00    0    0
  211    1   11   11    0    0   -0.1607460976E+01   -0.2961456537E+01    0.4316232681E+01    0.5477545261E+01    0.1395680159E+00    0    0
  111    1   11   11    0    0   -0.3122459054E+00   -0.4820058346E+00    0.8244206905E+00    0.1013761282E+01    0.1349639595E+00    0    0
  111    1   11   11    0    0   -0.1710101724E+01   -0.3798495770E+01    0.5421387196E+01    0.6838323593E+01    0.1349640042E+00    0    0
  111    1   11   11    0    0   -0.4048156261E+01   -0.8501568794E+01    0.1223850441E+02    0.1544226170E+02    0.1349640340E+00    0    0
  -16    1    9    9    0    0    0.4789078534E+00    0.1072211838E+02   -0.7251318455E+01    0.1295279121E+02    0.4228639591E-03    0    0
   24    2    9    9    0    0    0.1445785880E+01    0.2379239464E+02   -0.1737921333E+02    0.2952987862E+02    0.1344748139E+01    0    0
  111    1   19   19    0    0    0.2544400394E+00    0.8721843719E+01   -0.6198188305E+01    0.1070378685E+02    0.1349640936E+00    0    0
  111    1   19   19    0    0    0.2693485618E+00    0.6611276627E+01   -0.4868101120E+01    0.8215725899E+01    0.1349627525E+00    0    0
  111    1   19   19    0    0    0.1989973783E+00    0.3596730709E+01   -0.2486538649E+01    0.4379173279E+01    0.1349640042E+00    0    0
  211    1   19   19    0    0    0.7229999900E+00    0.4862545967E+01   -0.3826385736E+01    0.6231194973E+01    0.1395677179E+00    0    0
</event>
<event>
   27 9999    1    0.9119999695E+02    0.7565275169E-02    0.1185000000E+00
   11   -1    0    0    0    0    0.0000000000E+00    0.0000000000E+00    0.8000000000E+02    0.8000000000E+02    0.5109988851E-03    0    0
  -11   -1    0    0    0    0    0.0000000000E+00    0.0000000000E+00   -0.8000000000E+02    0.8000000000E+02    0.5109988851E-03    0    0
  -24    2    1    2    0    0   -0.1857869148E+02    0.2906720924E+02    0.4245768738E+02    0.6505544281E+02    0.3520632935E+02    0    0
   24    2    1    2    0    0    0.1811764526E+02   -0.2865116692E+02   -0.4246170044E+02    0.9357337189E+02    0.7618295288E+02    0    0
   22    1    1    2    0    0    0.4603693485E+00   -0.4163208008E+00   -0.5426836014E+00    0.8244807124E+00    0.0000000000E+00    0    0
   22    1    1    2    0    0    0.6774177891E-03    0.2783672535E-03    0.5464012027E+00    0.5464017391E+00    0.0000000000E+00    0    0
   22    1    1    2    0    0    0.4800849496E-07   -0.1117234802E-06    0.2968259505E-03    0.2968259796E-03    0.0000000000E+00    0    0
   15    2    3    3    0    0   -0.2568570709E+02    0.3202082062E+02    0.3888201141E+02    0.5656904984E+02    0.1777029991E+01    0    0
  -16    1    3    3    0    0    0.7107015133E+01   -0.2953613043E+01    0.3575672865E+01    0.8486396790E+01    0.0000000000E+00    0    0
   16    1    4    4    0    0    0.4781832123E+02   -0.1645208168E+02   -0.2016208839E+02    0.5444054413E+02    0.0000000000E+00    0    0
  -15    2    4    4    0    0   -0.2970067787E+02   -0.1219908428E+02   -0.2229961205E+02    0.3913283157E+02    0.1777029991E+01    0    0
   16    1    8    8    0    0   -0.1125195622E+01    0.1588049889E+01    0.1846290112E+01    0.2682676792E+01    0.3945953358E-04    0    0
  -24    2    8    8    0    0   -0.2456152153E+02    0.3043403244E+02    0.3703725433E+02    0.5388859940E+02    0.1650539875E+01    0    0
 -211    1   13   13    0    0   -0.2034291267E+01    0.2557091475E+01    0.2931445360E+01    0.4392027855E+01    0.1395680159E+00    0    0
 -211    1   13   13    0    0   -0.4817837238E+01    0.5972816467E+01    0.7163851738E+01    0.1049887371E+02    0.1395679861E+00    0    0
 -211    1   13   13    0    0   -0.1684176207E+01    0.1853965163E+01    0.2221867561E+01    0.3351091146E+01    0.1395679861E+00    0    0
  211    1   13   13    0    0   -0.1767509103E+01    0.2518404722E+01    0.2879102707E+01    0.4216060162E+01    0.1395680010E+00    0    0
  211    1   13   13    0    0   -0.1204223824E+02    0.1470670986E+02    0.1826963997E+02    0.2636478806E+02    0.1395679116E+00    0    0
  111    1   13   13    0    0   -0.2215471029E+01    0.2825046062E+01    0.3571346998E+01    0.5065760612E+01    0.1349639893E+00    0    0
  -16    1   11   11    0    0   -0.4662201881E+01   -0.1760055065E+01   -0.3369879007E+01    0.6015812874E+01    0.4587798030E-03    0    0
   24    2   11   11    0    0   -0.2503964424E+02   -0.1043950939E+02   -0.1893061256E+02    0.3311855698E+02    0.1582308650E+01    0    0
  211    1   21   21    0    0   -0.2703783035E+01   -0.1312537193E+01   -0.2397448063E+01    0.3847132921E+01    0.1395680606E+00    0    0
  211    1   21   21    0    0   -0.2395707607E+01   -0.9896284938E+00   -0.1919764280E+01    0.3228583336E+01    0.1395680457E+00    0    0
 -211    1   21   21    0    0   -0.2258999109E+01   -0.8111488223E+00   -0.1597692132E+01    0.2886717319E+01    0.1395679414E+00    0    0
  111    1   21   21    0    0   -0.1650149727E+02   -0.6760501862E+01   -0.1221492672E+02    0.2161542130E+02    0.1349640340E+00    0    0
  111    1   21   21    0    0   -0.1156608939E+01   -0.5468183756E+00   -0.7825728059E+00    0.1505785227E+01    0.1349640489E+00    0    0
   22    1   21   21    0    0   -0.2299133502E-01   -0.1885052957E-01   -0.1816270873E-01    0.3484002873E-01    0.0000000000E+00    0    0
</event>
<event>
   20 9999    1    0.9119999695E+02    0.7565275169E-02    0.1185000000E+00
   11   -1    0    0    0    0    0.0000000000E+00    0.0000000000E+00    0.8000000000E+02    0.8000000000E+02    0.5109988851E-03    0    0
  -11   -1    0    0    0    0    0.0000000000E+00    0.0000000000E+00   -0.8000000000E+02    0.8000000000E+02    0.5109988851E-03    0    0
  -24    2    1    2    0    0    0.1717722321E+02    0.3733699083E+01    0.9494100571E+01    0.7545400238E+02    0.7276105499E+02    0    0
   24    2    1    2    0    0   -0.1717607880E+02   -0.3723299742E+01   -0.9492025375E+01    0.8453533173E+02    0.8214160156E+02    0    0
   22    1    1    2    0    0   -0.1145388815E-02   -0.1039930619E-01   -0.2074915683E-02    0.1066596247E-01    0.0000000000E+00    0    0
   15    2    3    3    0    0   -0.2707163429E+02    0.1227443814E+01    0.1461307240E+02    0.3083958054E+02    0.1777029991E+01    0    0
  -16    1    3    3    0    0    0.4424885941E+02    0.2506255150E+01   -0.5118972301E+01    0.4461442184E+02    0.0000000000E+00    0    0
   16    1    4    4    0    0   -0.4512537003E+02   -0.2232073021E+02   -0.4435746670E+01    0.5053899384E+02    0.0000000000E+00    0    0
  -15    2    4    4    0    0    0.2794929123E+02    0.1859743118E+02   -0.5056278706E+01    0.3399633789E+02    0.1777029991E+01    0    0
   16    1    6    6    0    0   -0.1539279556E+02    0.1103839651E+00    0.8206840515E+01    0.1744427109E+02    0.4353437107E-03    0    0
  -24    2    6    6    0    0   -0.1167990398E+02    0.1117108226E+01    0.6406806946E+01    0.1339652348E+02    0.8669372201E+00    0    0
  111    1   11   11    0    0   -0.1388780236E+01    0.2456991822E+00    0.6636440754E+00    0.1564518213E+01    0.1349640787E+00    0    0
  111    1   11   11    0    0   -0.6111213207E+01    0.4496281743E+00    0.3378579617E+01    0.6998722076E+01    0.1349640489E+00    0    0
  111    1   11   11    0    0   -0.2314661980E+01    0.1295967251E+00    0.1309005380E+01    0.2665739298E+01    0.1349640042E+00    0    0
 -211    1   11   11    0    0   -0.1865247011E+01    0.2921840549E+00    0.1055577159E+01    0.2167542458E+01    0.1395680010E+00    0    0
  -16    1    9    9    0    0    0.3543141603E+01    0.1920828938E+01   -0.9646514058E+00    0.4144151211E+01    0.1495049946E-03    0    0
  213    2    9    9    0    0    0.2440724945E+02    0.1667733383E+02   -0.4091825962E+01    0.2985352516E+02    0.8016856313E+00    0    0
  211    1   17   17    0    0    0.1028650475E+02    0.7147437572E+01   -0.1386323214E+01    0.1260315037E+02    0.1395678520E+00    0    0
  111    1   17   17    0    0    0.1337444687E+02    0.9027840614E+01   -0.2596223593E+01    0.1634430504E+02    0.1349640936E+00    0    0
   22    1   17   17    0    0    0.7462977171E+00    0.5020558238E+00   -0.1092789993E+00    0.9060696363E+00    0.0000000000E+00    0    0
</event>
<event>
   20 9999    1    0.9119999695E+02    0.7565275169E-02    0.1185000000E+00
   11   -1    0    0    0    0    0.0000000000E+00    0.0000000000E+00    0.8000000000E+02    0.8000000000E+02    0.5109988851E-03    0    0
  -11   -1    0    0    0    0    0.0000000000E+00    0.0000000000E+00   -0.8000000000E+02    0.8000000000E+02    0.5109988851E-03    0    0
  -24    2    1    2    0    0    0.7503662586E+01    0.7876167297E+01    0.5925068665E+02    0.9611589813E+02    0.7489514923E+02    0    0
   24    2    1    2    0    0   -0.7503663063E+01   -0.7876187801E+01   -0.5931021881E+02    0.6382456589E+02    0.2091731071E+02    0    0
   22    1    1    2    0    0    0.5299647796E-06    0.2041856715E-04    0.5953494832E-01    0.5953494832E-01    0.0000000000E+00    0    0
   15    2    3    3    0    0    0.8064825058E+01    0.1223274946E+01    0.7684513092E+02    0.7729727936E+02    0.1777029991E+01    0    0
  -16    1    3    3    0    0   -0.5611624122E+00    0.6652892590E+01   -0.1759444427E+02    0.1881861687E+02    0.0000000000E+00    0    0
   16    1    4    4    0    0   -0.1543768346E+00   -0.1248450375E+02   -0.4719382858E+02    0.4881745911E+02    0.0000000000E+00    0    0
  -15    2    4    4    0    0   -0.7349286079E+01    0.4608315468E+01   -0.1211639023E+02    0.1500710964E+02    0.1777029991E+01    0    0
   16    1    6    6    0    0    0.1003173470E+01   -0.2285708673E-01    0.7749726295E+01    0.7814418793E+01    0.3452669771E-03    0    0
  -24    2    6    6    0    0    0.7061968803E+01    0.1246180177E+01    0.6909842682E+02    0.6948590088E+02    0.1507913351E+01    0    0
 -211    1   11   11    0    0    0.3534960508E+01    0.8466743827E+00    0.3028766441E+02    0.3050532532E+02    0.1395687163E+00    0    0
 -211    1   11   11    0    0    0.5944171548E+00   -0.1820667461E-01    0.6957540035E+01    0.6984304428E+01    0.1395678371E+00    0    0
  211    1   11   11    0    0    0.2128301620E+01    0.8264753968E-01    0.2159470558E+02    0.2169993782E+02    0.1395680457E+00    0    0
  111    1   11   11    0    0    0.8042899370E+00    0.3350650370E+00    0.1025852108E+02    0.1029633999E+02    0.1349639297E+00    0    0
  -16    1    9    9    0    0   -0.4006390274E+00    0.2480954975E+00   -0.1021911502E+01    0.1125329494E+01    0.4464336671E-03    0    0
   24    2    9    9    0    0   -0.6948936462E+01    0.4360401154E+01   -0.1109495544E+02    0.1388237000E+02    0.1523598194E+01    0    0
  221    1   17   17    0    0   -0.4699913025E+01    0.2895311832E+01   -0.6807819366E+01    0.8781776428E+01    0.5488001704E+00    0    0
  211    1   17   17    0    0   -0.7337232232E+00    0.2159213871E+00   -0.1484296560E+01    0.1675585628E+01    0.1395680457E+00    0    0
  111    1   17   17    0    0   -0.1515299797E+01    0.1249167919E+01   -0.2802839756E+01    0.3425008059E+01    0.1349640787E+00    0    0
</event>
<event>
   18 9999    1    0.9119999695E+02    0.7565275169E-02    0.1185000000E+00
   11   -1    0    0    0    0    0.0000000000E+00    0.0000000000E+00    0.8000000000E+02    0.8000000000E+02    0.5109988851E-03    0    0
  -11   -1    0    0    0    0    0.0000000000E+00    0.0000000000E+00   -0.8000000000E+02    0.8000000000E+02    0.5109988851E-03    0    0
  -24    2    1    2    0    0   -0.4931405187E+00    0.7167490005E+01    0.1593575573E+02    0.8113708496E+02    0.7923169708E+02    0    0
   24    2    1    2    0    0    0.4886297882E+00   -0.7180527210E+01   -0.1602361679E+02    0.7877397919E+02    0.7679052734E+02    0    0
   22    1    1    2    0    0    0.4510735627E-02    0.1303741429E-01    0.8786108345E-01    0.8893756568E-01    0.0000000000E+00    0    0
   15    2    3    3    0    0    0.2554772615E+01   -0.2456719589E+02   -0.2091191101E+02    0.3241203308E+02    0.1777029991E+01    0    0
  -16    1    3    3    0    0   -0.3047913074E+01    0.3173468590E+02    0.3684766769E+02    0.4872505188E+02    0.0000000000E+00    0    0
   16    1    4    4    0    0    0.3885021210E+01    0.8701850891E+01   -0.4473530960E+02    0.4573908234E+02    0.0000000000E+00    0    0
  -15    2    4    4    0    0   -0.3396391392E+01   -0.1588237858E+02    0.2871169281E+02    0.3303489685E+02    0.1777029991E+01    0    0
   16    1    6    6    0    0   -0.1694446895E-02   -0.4804184914E+01   -0.3847076178E+01    0.6154688835E+01    0.2479259856E-03    0    0
 -323    2    6    6    0    0    0.2556567669E+01   -0.1976397896E+02   -0.1706565666E+02    0.2625861931E+02    0.1061863661E+01    0    0
  111    1   11   11    0    0    0.1431023479E+01   -0.8253854752E+01   -0.7400953770E+01    0.1117883205E+02    0.1349639446E+00    0    0
 -321    1   11   11    0    0    0.1125544190E+01   -0.1151012421E+02   -0.9664703369E+01    0.1507978821E+02    0.4936670065E+00    0    0
  -16    1    9    9    0    0   -0.7393280417E-01   -0.1077904224E+01    0.2294049978E+01    0.2535746336E+01    0.6254242617E-03    0    0
   24    2    9    9    0    0   -0.3322592258E+01   -0.1480509853E+02    0.2641877174E+02    0.3050045204E+02    0.1447580099E+01    0    0
  221    1   15   15    0    0   -0.2338007927E+01   -0.1085636139E+02    0.1974793625E+02    0.2266294479E+02    0.5487998724E+00    0    0
  211    1   15   15    0    0   -0.1392330676E+00   -0.1261212945E+01    0.2419490099E+01    0.2735590458E+01    0.1395680606E+00    0    0
  111    1   15   15    0    0   -0.8453508615E+00   -0.2687522411E+01    0.4251341820E+01    0.5101912975E+01    0.1349638999E+00    0    0
</event>
<event>
   19 9999    1    0.9119999695E+02    0.7565275169E-02    0.1185000000E+00
   11   -1    0    0    0    0    0.0000000000E+00    0.0000000000E+00    0.8000000000E+02    0.8000000000E+02    0.5109988851E-03    0    0
  -11   -1    0    0    0    0    0.0000000000E+00    0.0000000000E+00   -0.8000000000E+02    0.8000000000E+02    0.5109988851E-03    0    0
  -24    2    1    2    0    0    0.1143576813E+02   -0.7584972382E+01    0.1060720062E+02    0.7692893982E+02    0.7494824982E+02    0    0
   24    2    1    2    0    0   -0.1143570900E+02    0.7584929943E+01   -0.1060887909E+02    0.8306938171E+02    0.8123833466E+02    0    0
   22    1    1    2    0    0   -0.5979423076E-04    0.4236023960E-04    0.1678421162E-02    0.1680020010E-02    0.0000000000E+00    0    0
   15    2    3    3    0    0    0.1307831097E+02    0.1417510390E+01    0.4209496307E+02    0.4413836288E+02    0.1777029991E+01    0    0
  -16    1    3    3    0    0   -0.1642542124E+01   -0.9002482414E+01   -0.3148776054E+02    0.3279057312E+02    0.0000000000E+00    0    0
   16    1    4    4    0    0    0.1650833511E+02    0.7719132423E+01   -0.3908991241E+02    0.4312924194E+02    0.0000000000E+00    0    0
  -15    2    4    4    0    0   -0.2794404411E+02   -0.1342027336E+00    0.2848103523E+02    0.3994013977E+02    0.1777029991E+01    0    0
   16    1    6    6    0    0    0.9540324211E+01    0.3493039310E+00    0.3161616707E+02    0.3302607727E+02    0.0000000000E+00    0    0
 -211    1    6    6    0    0    0.3538502216E+01    0.1068262219E+01    0.1048045349E+02    0.1111402512E+02    0.1395679563E+00    0    0
  -16    1    9    9    0    0   -0.3703615189E+01    0.2513501346E+00    0.3821875095E+01    0.5327914238E+01    0.5709316247E-04    0    0
   24    2    9    9    0    0   -0.2424152756E+02   -0.3855581582E+00    0.2466027832E+02    0.3461379623E+02    0.1478234172E+01    0    0
  211    1   13   13    0    0   -0.1093144178E+01    0.6546064466E-01    0.9916923642E+00    0.1483975172E+01    0.1395679563E+00    0    0
  211    1   13   13    0    0   -0.3412194490E+01   -0.6441278011E-01    0.3749878407E+01    0.5072305679E+01    0.1395679563E+00    0    0
  211    1   13   13    0    0   -0.4529435635E+01   -0.3351245821E-01    0.4717784405E+01    0.6541703224E+01    0.1395679712E+00    0    0
 -211    1   13   13    0    0   -0.5878166676E+01   -0.3208800256E+00    0.5724726677E+01    0.8212659836E+01    0.1395679116E+00    0    0
 -211    1   13   13    0    0   -0.7885219097E+01    0.9494346566E-02    0.7986915112E+01    0.1122439575E+02    0.1395679861E+00    0    0
  111    1   13   13    0    0   -0.1443367481E+01   -0.4170787707E-01    0.1489281416E+01    0.2078755379E+01    0.1349639893E+00    0    0
</event>
<event>
   19 9999    1    0.9119999695E+02    0.7565275169E-02    0.1185000000E+00
   11   -1    0    0    0    0    0.0000000000E+00    0.0000000000E+00    0.8000000000E+02    0.8000000000E+02    0.5109988851E-03    0    0
  -11   -1    0    0    0    0    0.0000000000E+00    0.0000000000E+00   -0.8000000000E+02    0.8000000000E+02    0.5109988851E-03    0    0
  -24    2    1    2    0    0   -0.2021219730E+00   -0.9706155777E+01    0.8859260559E+01    0.8081018066E+02    0.7973423767E+02    0    0
   24    2    1    2    0    0    0.1889760047E+00    0.9740631104E+01   -0.1295546627E+02    0.7509345245E+02    0.7332302856E+02    0    0
   22    1    1    2    0    0    0.1314596366E-01   -0.3447540104E-01    0.4096205711E+01    0.4096371651E+01    0.0000000000E+00    0    0
   15    2    3    3    0    0    0.3457582474E+02   -0.1056069493E+01    0.2375447273E+02    0.4200042725E+02    0.1777029991E+01    0    0
  -16    1    3    3    0    0   -0.3477794647E+02   -0.8650086403E+01   -0.1489521122E+02    0.3880975342E+02    0.0000000000E+00    0    0
   16    1    4    4    0    0    0.1376978016E+02    0.3366695786E+02   -0.2588367653E+02    0.4464342880E+02    0.0000000000E+00    0    0
  -15    2    4    4    0    0   -0.1358080387E+02   -0.2392632675E+02    0.1292821121E+02    0.3045002174E+02    0.1777029991E+01    0    0
   16    1    6    6    0    0    0.1610716820E+02   -0.7934516668E+00    0.1152922630E+02    0.1982406425E+02    0.0000000000E+00    0    0
   13    1    6    6    0    0    0.1146338844E+02    0.3588474989E+00    0.7565099716E+01    0.1373972130E+02    0.1056594551E+00    0    0
  -14    1    6    6    0    0    0.7006629467E+01   -0.6215069890E+00    0.4661081314E+01    0.8438293457E+01    0.9650505672E-04    0    0
  -16    1    9    9    0    0   -0.6016040444E+00   -0.1237528086E+01    0.5921068192E+00    0.1497996688E+01    0.4438183387E-03    0    0
   24    2    9    9    0    0   -0.1297973442E+02   -0.2268973923E+02    0.1233661270E+02    0.2895322227E+02    0.1673113942E+01    0    0
  211    1   14   14    0    0   -0.1911633730E+01   -0.3169568300E+01    0.1931213379E+01    0.4177268505E+01    0.1395677328E+00    0    0
  211    1   14   14    0    0   -0.3085074186E+01   -0.5067086220E+01    0.2303941488E+01    0.6365584850E+01    0.1395677924E+00    0    0
 -211    1   14   14    0    0   -0.1272377372E+01   -0.1953140855E+01    0.1028462529E+01    0.2551650047E+01    0.1395679861E+00    0    0
  111    1   14   14    0    0   -0.3840672970E+01   -0.7456061840E+01    0.4084160805E+01    0.9329641342E+01    0.1349638402E+00    0    0
  111    1   14   14    0    0   -0.2869977236E+01   -0.5043885231E+01    0.2988835812E+01    0.6529080868E+01    0.1349635273E+00    0    0
</event>
<event>
   20 9999    1    0.9119999695E+02    0.7565275169E-02    0.1185000000E+00
   11   -1    0    0    0    0    0.0000000000E+00    0.0000000000E+00    0.8000000000E+02    0.8000000000E+02    0.5109988851E-03    0    0
  -11   -1    0    0    0    0    0.0000000000E+00    0.0000000000E+00   -0.8000000000E+02    0.8000000000E+02    0.5109988851E-03    0    0
  -24    2    1    2    0    0   -0.6562377453E+01   -0.9227503777E+01    0.7502442360E+01    0.8249893188E+02    0.8137306213E+02    0    0
   24    2    1    2    0    0    0.6561905861E+01    0.9227565765E+01   -0.7504705429E+01    0.7749739075E+02    0.7629756927E+02    0    0
   22    1    1    2    0    0    0.1856044634E-06    0.2148413387E-05    0.2575912513E-02    0.2575913444E-02    0.0000000000E+00    0    0
   22    1    1    2    0    0   -0.3637643886E-05    0.2151568594E-06   -0.5615703412E-03    0.5615821574E-03    0.0000000000E+00    0    0
   22    1    1    2    0    0    0.4751374363E-03   -0.6381190178E-04    0.2486442681E-03    0.5400477094E-03    0.0000000000E+00    0    0
   15    2    3    3    0    0   -0.2140855026E+02    0.2893183899E+02    0.1792552757E+02    0.4024748230E+02    0.1777029991E+01    0    0
  -16    1    3    3    0    0    0.1484617233E+02   -0.3815934372E+02   -0.1042308521E+02    0.4225144958E+02    0.0000000000E+00    0    0
   16    1    4    4    0    0   -0.5397606850E+01   -0.2536298180E+02    0.1910755539E+02    0.3221046066E+02    0.0000000000E+00    0    0
  -15    2    4    4    0    0    0.1195951271E+02    0.3459054947E+02   -0.2661226082E+02    0.4528693390E+02    0.1777029991E+01    0    0
   16    1    8    8    0    0   -0.6584353924E+01    0.7816190720E+01    0.5159492493E+01    0.1144844627E+02    0.7475249731E-04    0    0
 -323    2    8    8    0    0   -0.1482503796E+02    0.2111678696E+02    0.1276674080E+02    0.2880061913E+02    0.8862861991E+00    0    0
 -211    1   13   13    0    0   -0.1760070562E+01    0.2218873501E+01    0.1325459242E+01    0.3130106926E+01    0.1395679861E+00    0    0
  130    1   13   13    0    0   -0.1306496716E+02    0.1889791298E+02    0.1144128132E+02    0.2567051125E+02    0.4977200329E+00    0    0
  -16    1   11   11    0    0    0.4045788288E+01    0.1222940540E+02   -0.9473520279E+01    0.1598982048E+02    0.1881229837E-03    0    0
   24    2   11   11    0    0    0.7914195061E+01    0.2236250496E+02   -0.1713978767E+02    0.2929889488E+02    0.1391694069E+01    0    0
  221    1   17   17    0    0    0.4370114803E+01    0.1315429783E+02   -0.9884053230E+01    0.1703317833E+02    0.5487999916E+00    0    0
  211    1   17   17    0    0    0.3378699064E+01    0.8468788147E+01   -0.6645627022E+01    0.1128360844E+02    0.1395680308E+00    0    0
  111    1   17   17    0    0    0.1653814763E+00    0.7394191623E+00   -0.6101086736E+00    0.9821097851E+00    0.1349639893E+00    0    0
</event>
<event>
   18 9999    1    0.9119999695E+02    0.7565275169E-02    0.1185000000E+00
   11   -1    0    0    0    0    0.0000000000E+00    0.0000000000E+00    0.8000000000E+02    0.8000000000E+02    0.5109988851E-03    0    0
  -11   -1    0    0    0    0    0.0000000000E+00    0.0000000000E+00   -0.8000000000E+02    0.8000000000E+02    0.5109988851E-03    0    0
  -24    2    1    2    0    0    0.3061263275E+02    0.3040329552E+02    0.2120859528E+02    0.9448034668E+02    0.8133410645E+02    0    0
   24    2    1    2    0    0   -0.3061263275E+02   -0.3040329552E+02   -0.2120859528E+02    0.6551965332E+02    0.4451434708E+02    0    0
   15    2    3    3    0    0    0.1308285332E+02    0.9604977608E+01    0.5134827423E+02    0.5388153458E+02    0.1777029991E+01    0    0
  -16    1    3    3    0    0    0.1752977943E+02    0.2079831696E+02   -0.3013967896E+02    0.4059880829E+02    0.0000000000E+00    0    0
   16    1    4    4    0    0    0.9703986168E+01   -0.3299551010E+01    0.3699965954E+01    0.1089697838E+02    0.0000000000E+00    0    0
  -15    2    4    4    0    0   -0.4031661987E+02   -0.2710374451E+02   -0.2490856171E+02    0.5462267685E+02    0.1777029991E+01    0    0
   16    1    5    5    0    0    0.2717714906E+00    0.2116022855E+00    0.1393124580E+01    0.1435071826E+01    0.1965957490E-03    0    0
  -24    2    5    5    0    0    0.1281159782E+02    0.9393753052E+01    0.4995717239E+02    0.5244858551E+02    0.1659929872E+01    0    0
  221    1   10   10    0    0    0.8003693581E+01    0.5710536003E+01    0.3116616440E+02    0.3268486404E+02    0.5487999916E+00    0    0
 -211    1   10   10    0    0    0.3010053873E+01    0.1996963978E+01    0.1225609303E+02    0.1277809048E+02    0.1395678520E+00    0    0
  111    1   10   10    0    0    0.1797851205E+01    0.1686254144E+01    0.6534917831E+01    0.6985634327E+01    0.1349639595E+00    0    0
  -16    1    8    8    0    0   -0.1269405079E+02   -0.8949688911E+01   -0.7904312134E+01    0.1742739296E+02    0.5430519814E-03    0    0
   24    2    8    8    0    0   -0.2762415314E+02   -0.1815512085E+02   -0.1700522804E+02    0.3719743347E+02    0.1330034256E+01    0    0
  321    1   15   15    0    0   -0.1338007641E+02   -0.8482655525E+01   -0.8097178459E+01    0.1779859161E+02    0.4936670959E+00    0    0
  111    1   15   15    0    0   -0.2870728731E+01   -0.1814897656E+01   -0.1837859035E+01    0.3864049435E+01    0.1349637508E+00    0    0
  310    1   15   15    0    0   -0.1137334824E+02   -0.7857566357E+01   -0.7070189953E+01    0.1553479004E+02    0.4977199733E+00    0    0
</event>
<event>
   22 9999    1    0.9119999695E+02    0.7565275169E-02    0.1185000000E+00
   11   -1    0    0    0    0    0.0000000000E+00    0.0000000000E+00    0.8000000000E+02    0.8000000000E+02    0.5109988851E-03    0    0
  -11   -1    0    0    0    0    0.0000000000E+00    0.0000000000E+00   -0.8000000000E+02    0.8000000000E+02    0.5109988851E-03    0    0
  -24    2    1    2    0    0    0.1379568458E+01   -0.2931670761E+02    0.1677898407E+02    0.7872503662E+02    0.7109658813E+02    0    0
   24    2    1    2    0    0   -0.1379568458E+01    0.2931670761E+02   -0.1677821922E+02    0.8127419281E+02    0.7390950012E+02    0    0
   22    1    1    2    0    0   -0.4272942888E-07    0.2055356774E-07   -0.7640509284E-03    0.7640509284E-03    0.0000000000E+00    0    0
   15    2    3    3    0    0    0.2574929810E+02   -0.3267145920E+02    0.2950283051E+02    0.5102965546E+02    0.1777029991E+01    0    0
  -16    1    3    3    0    0   -0.2436973000E+02    0.3354753017E+01   -0.1272384739E+02    0.2769538689E+02    0.0000000000E+00    0    0
   16    1    4    4    0    0    0.3488801575E+02    0.5603339672E+01   -0.1759631276E+01    0.3537891006E+02    0.0000000000E+00    0    0
  -15    2    4    4    0    0   -0.3626758194E+02    0.2371336746E+02   -0.1501858807E+02    0.4589528656E+02    0.1777029991E+01    0    0
   16    1    6    6    0    0    0.2172768116E+01   -0.2552254200E+01    0.2441531658E+01    0.4146806240E+01    0.5709316247E-04    0    0
  -24    2    6    6    0    0    0.2357754517E+02   -0.3012049103E+02    0.2706245995E+02    0.4688485718E+02    0.1633513212E+01    0    0
 -211    1   11   11    0    0    0.4907204151E+01   -0.6448414326E+01    0.5849615574E+01    0.9995007515E+01    0.1395679861E+00    0    0
 -211    1   11   11    0    0    0.1201244473E+01   -0.1729859471E+01    0.1358988166E+01    0.2510324717E+01    0.1395679414E+00    0    0
 -211    1   11   11    0    0    0.3432275057E+01   -0.4075994492E+01    0.3765595675E+01    0.6526364326E+01    0.1395680010E+00    0    0
  211    1   11   11    0    0    0.5083693981E+01   -0.6952891827E+01    0.6143673420E+01    0.1058068275E+02    0.1395679712E+00    0    0
  211    1   11   11    0    0    0.3008105993E+01   -0.3833285093E+01    0.3302484751E+01    0.5888010025E+01    0.1395680010E+00    0    0
  111    1   11   11    0    0    0.5945020676E+01   -0.7080045700E+01    0.6642102242E+01    0.1138446522E+02    0.1349640042E+00    0    0
  -16    1    9    9    0    0   -0.2527343035E+01    0.1300296664E+01   -0.9461271763E+00    0.2995561838E+01    0.5682746996E-03    0    0
   24    2    9    9    0    0   -0.3374166489E+02    0.2241400337E+02   -0.1407305145E+02    0.4290152740E+02    0.1265996814E+01    0    0
  211    1   19   19    0    0   -0.1642963052E+01    0.1290944457E+01   -0.7376733422E+00    0.2220249176E+01    0.1395678520E+00    0    0
  111    1   19   19    0    0   -0.4322790146E+01    0.2597476959E+01   -0.1869911194E+01    0.5380351543E+01    0.1349641532E+00    0    0
   22    1   19   19    0    0   -0.2777591133E+02    0.1852557945E+02   -0.1146546555E+02    0.3530092239E+02    0.1398491149E-03    0    0
</event>
<event>
   18 9999    1    0.9119999695E+02    0.7565275169E-02    0.1185000000E+00
   11   -1    0    0    0    0    0.0000000000E+00    0.0000000000E+00    0.8000000000E+02    0.8000000000E+02    0.5109988851E-03    0    0
  -11   -1    0    0    0    0    0.0000000000E+00    0.0000000000E+00   -0.8000000000E+02    0.8000000000E+02    0.5109988851E-03    0    0
  -24    2    1    2    0    0   -0.8785587311E+01   -0.1062510133E+01    0.6658264995E-01    0.7887493896E+02    0.7837688446E+02    0    0
   24    2    1    2    0    0    0.8818055153E+01    0.9130400419E+00    0.4208758175E+00    0.8061318207E+02    0.8012313080E+02    0    0
   22    1    1    2    0    0   -0.3269619867E-01    0.1497547328E+00   -0.4878395498E+00    0.5113540292E+00    0.0000000000E+00    0    0
   22    1    1    2    0    0    0.2288043761E-03   -0.2845715499E-03    0.3810750204E-03    0.5277789314E-03    0.0000000000E+00    0    0
   15    2    3    3    0    0   -0.3849203873E+02    0.1995273829E+01    0.1951296806E+02    0.4323808289E+02    0.1777029991E+01    0    0
  -16    1    3    3    0    0    0.2970645142E+02   -0.3057784081E+01   -0.1944638443E+02    0.3563685226E+02    0.0000000000E+00    0    0
   16    1    4    4    0    0   -0.1151704311E+02    0.2996300697E+02    0.2213762856E+02    0.3899357224E+02    0.0000000000E+00    0    0
  -15    2    4    4    0    0    0.2033509827E+02   -0.2904996681E+02   -0.2171675301E+02    0.4161960983E+02    0.1777029991E+01    0    0
   16    1    7    7    0    0   -0.1980213225E+00   -0.2501265332E-01    0.6185932085E-01    0.2089612335E+00    0.3807060129E-03    0    0
  -24    2    7    7    0    0   -0.3829553223E+02    0.2020365000E+01    0.1945187569E+02    0.4303082275E+02    0.1626865149E+01    0    0
  221    1   12   12    0    0   -0.1619649887E+02    0.1166764498E+01    0.7892019749E+01    0.1806303215E+02    0.5487999320E+00    0    0
 -211    1   12   12    0    0   -0.3281820536E+01   -0.1079090312E+00    0.1828446388E+01    0.3760941982E+01    0.1395677924E+00    0    0
  111    1   12   12    0    0   -0.1881720924E+02    0.9615092278E+00    0.9731408119E+01    0.2120684814E+02    0.1349639893E+00    0    0
  -16    1   10   10    0    0    0.7923923969E+01   -0.1145154285E+02   -0.8494094849E+01    0.1631183815E+02    0.1225462183E-03    0    0
  -11    1   10   10    0    0    0.5210268497E+01   -0.8066479683E+01   -0.6554909706E+01    0.1162677288E+02    0.5980199785E-03    0    0
   12    1   10   10    0    0    0.7201705933E+01   -0.9533086777E+01   -0.6668602943E+01    0.1368263817E+02    0.3452669771E-03    0    0
</event>
<event>
   22 9999    1    0.9119999695E+02    0.7565275169E-02    0.1185000000E+00
   11   -1    0    0    0    0    0.0000000000E+00    0.0000000000E+00    0.8000000000E+02    0.8000000000E+02    0.5109988851E-03    0    0
  -11   -1    0    0    0    0    0.0000000000E+00    0.0000000000E+00   -0.8000000000E+02    0.8000000000E+02    0.5109988851E-03    0    0
  -24    2    1    2    0    0   -0.3267426491E+00    0.1640579605E+02    0.1605566216E+02    0.8383555603E+02    0.8063100433E+02    0    0
   24    2    1    2    0    0    0.3267426491E+00   -0.1640579605E+02   -0.1605566216E+02    0.7616444397E+02    0.7262218475E+02    0    0
   15    2    3    3    0    0   -0.4957081795E+01    0.2781229019E+02    0.4455765533E+02    0.5278862381E+02    0.1777029991E+01    0    0
  -16    1    3    3    0    0    0.4630339146E+01   -0.1140649414E+02   -0.2850199509E+02    0.3104693031E+02    0.0000000000E+00    0    0
   16    1    4    4    0    0   -0.2663406372E+02    0.6909324646E+01    0.1272451115E+02    0.3031542969E+02    0.0000000000E+00    0    0
  -15    2    4    4    0    0    0.2660911179E+02   -0.2295987511E+02   -0.2840794754E+02    0.4522576523E+02    0.1777029991E+01    0    0
   22    1    4    4    0    0    0.3516950011E+00   -0.3552448153E+00   -0.3722264767E+00    0.6232501864E+00    0.0000000000E+00    0    0
   16    1    5    5    0    0   -0.2975562811E+00    0.1150074601E+01    0.1686016679E+01    0.2062489748E+01    0.3051757812E-04    0    0
  -24    2    5    5    0    0   -0.4659720421E+01    0.2666330719E+02    0.4287339020E+02    0.5072820663E+02    0.1605747700E+01    0    0
 -211    1   11   11    0    0   -0.1178626299E+01    0.6581312656E+01    0.1077404404E+02    0.1268078613E+02    0.1395679861E+00    0    0
 -211    1   11   11    0    0   -0.2968389392E+00    0.1692012429E+01    0.2737496376E+01    0.3234870195E+01    0.1395679861E+00    0    0
  211    1   11   11    0    0   -0.1223852992E+01    0.5389812946E+01    0.9206443787E+01    0.1073899364E+02    0.1395679116E+00    0    0
  111    1   11   11    0    0   -0.2505118549E+00    0.1383081794E+01    0.2322559595E+01    0.2718118668E+01    0.1349639893E+00    0    0
  111    1   11   11    0    0   -0.9507569075E+00    0.6782175064E+01    0.1014550495E+02    0.1224137783E+02    0.1349638402E+00    0    0
  111    1   11   11    0    0   -0.7591335177E+00    0.4834912777E+01    0.7687343121E+01    0.9114062309E+01    0.1349639893E+00    0    0
  -16    1    8    8    0    0    0.1000182819E+02   -0.8753032684E+01   -0.1084885597E+02    0.1715662575E+02    0.5115678068E-03    0    0
   24    2    8    8    0    0    0.1660833740E+02   -0.1420775509E+02   -0.1756021881E+02    0.2807093430E+02    0.1385255933E+01    0    0
  321    1   19   19    0    0    0.1240294743E+02   -0.1072610950E+02   -0.1348994732E+02    0.2123923111E+02    0.4936669469E+00    0    0
  211    1   19   19    0    0    0.7201604247E+00   -0.7866342664E+00   -0.7052738070E+00    0.1286201596E+01    0.1395685375E+00    0    0
 -211    1   19   19    0    0    0.3485226870E+01   -0.2695008278E+01   -0.3364993572E+01    0.5545496941E+01    0.1395679265E+00    0    0
</event>
<event>
   17 9999    1    0.9119999695E+02    0.7565275169E-02    0.1185000000E+00
   11   -1    0    0    0    0    0.0000000000E+00    0.0000000000E+00    0.8000000000E+02    0.8000000000E+02    0.5109988851E-03    0    0
  -11   -1    0    0    0    0    0.0000000000E+00    0.0000000000E+00   -0.8000000000E+02    0.8000000000E+02    0.5109988851E-03    0    0
  -24    2    1    2    0    0    0.5931636333E+01    0.1316514969E+02    0.4432796955E+01    0.8136390686E+02    0.7994954681E+02    0    0
   24    2    1    2    0    0   -0.5931636333E+01   -0.1316514969E+02   -0.4432796955E+01    0.7863609314E+02    0.7717175293E+02    0    0
   15    2    3    3    0    0   -0.3686809921E+02    0.1036880875E+02    0.1381012559E+01    0.3836448669E+02    0.1777029991E+01    0    0
  -16    1    3    3    0    0    0.4279973602E+02    0.2796340466E+01    0.3051784277E+01    0.4299942017E+02    0.0000000000E+00    0    0
   16    1    4    4    0    0   -0.3033445358E+02   -0.1525558853E+02    0.2361363602E+02    0.4135838318E+02    0.0000000000E+00    0    0
  -15    2    4    4    0    0    0.2440281677E+02    0.2090439081E+01   -0.2804643250E+02    0.3727770996E+02    0.1777029991E+01    0    0
   16    1    5    5    0    0   -0.1537648773E+02    0.4398221016E+01    0.2202111483E+00    0.1599466133E+02    0.4882812500E-03    0    0
  -24    2    5    5    0    0   -0.2149306107E+02    0.5970995426E+01    0.1160855770E+01    0.2237133408E+02    0.1234733820E+01    0    0
 -211    1   10   10    0    0   -0.4063715935E+01    0.1180621743E+01   -0.9475388378E-01    0.4235105038E+01    0.1395680010E+00    0    0
  310    1   10   10    0    0   -0.1008888912E+02    0.2848546028E+01    0.5540721416E+00    0.1050973892E+02    0.4977200627E+00    0    0
  111    1   10   10    0    0   -0.7340459824E+01    0.1941828728E+01    0.7015377879E+00    0.7626494884E+01    0.1349639595E+00    0    0
  -16    1    8    8    0    0    0.2338132113E+00    0.1570187509E+00   -0.3349760771E+00    0.4376442134E+00    0.2905186921E-04    0    0
   24    2    8    8    0    0    0.2416996574E+02    0.1933502793E+01   -0.2771256256E+02    0.3684153366E+02    0.1177672148E+01    0    0
  321    1   15   15    0    0    0.1084966755E+02    0.1129489541E+01   -0.1220519924E+02    0.1637686348E+02    0.4936670661E+00    0    0
  310    1   15   15    0    0    0.1332029819E+02    0.8040133119E+00   -0.1550736237E+02    0.2046467209E+02    0.4977199435E+00    0    0
</event>
<event>
   21 9999    1    0.9119999695E+02    0.7565275169E-02    0.1185000000E+00
   11   -1    0    0    0    0    0.0000000000E+00    0.0000000000E+00    0.8000000000E+02    0.8000000000E+02    0.5109988851E-03    0    0
  -11   -1    0    0    0    0    0.0000000000E+00    0.0000000000E+00   -0.8000000000E+02    0.8000000000E+02    0.5109988851E-03    0    0
  -24    2    1    2    0    0   -0.2056487799E+01    0.1768909645E+02    0.1443258190E+02    0.8372830963E+02    0.8052947998E+02    0    0
   24    2    1    2    0    0    0.2056651592E+01   -0.1768900681E+02   -0.1436257362E+02    0.7620167542E+02    0.7268618774E+02    0    0
   22    1    1    2    0    0   -0.1639459806E-03   -0.8826507838E-04   -0.6976639479E-01    0.6976664066E-01    0.0000000000E+00    0    0
   22    1    1    2    0    0    0.6636085903E-08   -0.5694731353E-08   -0.2421096287E-03    0.2421096287E-03    0.0000000000E+00    0    0
   15    2    3    3    0    0   -0.1252105999E+02    0.4567985916E+02    0.2294044685E+02    0.5265784454E+02    0.1777029991E+01    0    0
  -16    1    3    3    0    0    0.1046457291E+02   -0.2799076462E+02   -0.8507865906E+01    0.3107046890E+02    0.0000000000E+00    0    0
   16    1    4    4    0    0   -0.1290745354E+02   -0.3732615280E+02    0.1075913620E+02    0.4093412781E+02    0.0000000000E+00    0    0
  -15    2    4    4    0    0    0.1496410561E+02    0.1963714409E+02   -0.2512170982E+02    0.3526754761E+02    0.1777029991E+01    0    0
   16    1    7    7    0    0   -0.3923490524E+01    0.1422050953E+02    0.6682775021E+01    0.1619494247E+02    0.4401307669E-03    0    0
*****    2    7    7    0    0   -0.8598062515E+01    0.3146114922E+02    0.1625857544E+02    0.3646497345E+02    0.1273790598E+01    0    0
  111    1   12   12    0    0   -0.6390972137E+00    0.2337651491E+01    0.1380278230E+01    0.2792211294E+01    0.1349641383E+00    0    0
  111    1   12   12    0    0   -0.1161049962E+01    0.3909073353E+01    0.2343264580E+01    0.4705102921E+01    0.1349637359E+00    0    0
 -211    1   12   12    0    0   -0.6797915459E+01    0.2521442413E+02    0.1253503227E+02    0.2896766090E+02    0.1395681202E+00    0    0
  -16    1   10   10    0    0    0.3263034105E+01    0.4848435402E+01   -0.6464395046E+01    0.8714534760E+01    0.8631674427E-04    0    0
   24    2   10   10    0    0    0.1170166111E+02    0.1478948116E+02   -0.1865830421E+02    0.2655440331E+02    0.1160329223E+01    0    0
  211    1   17   17    0    0    0.1246178389E+01    0.1505024076E+01   -0.1811344862E+01    0.2668053150E+01    0.1395678371E+00    0    0
  211    1   17   17    0    0    0.6882382393E+01    0.8744300842E+01   -0.1058300400E+02    0.1535739040E+02    0.1395683885E+00    0    0
 -211    1   17   17    0    0    0.2154117107E+01    0.2568193197E+01   -0.3677802563E+01    0.4978106976E+01    0.1395681202E+00    0    0
  111    1   17   17    0    0    0.1418983221E+01    0.1971964836E+01   -0.2586153746E+01    0.3550854206E+01    0.1349640042E+00    0    0
</event>
<event>
   15 9999    1    0.9119999695E+02    0.7565275169E-02    0.1185000000E+00
   11   -1    0    0    0    0    0.0000000000E+00    0.0000000000E+00    0.8000000000E+02    0.8000000000E+02    0.5109988851E-03    0    0
  -11   -1    0    0    0    0    0.0000000000E+00    0.0000000000E+00   -0.8000000000E+02    0.8000000000E+02    0.5109988851E-03    0    0
  -24    2    1    2    0    0   -0.1776971698E+01   -0.1410565948E+02    0.4099373245E+02    0.9064662170E+02    0.7958766937E+02    0    0
   24    2    1    2    0    0    0.1776971698E+01    0.1410565948E+02   -0.4099373245E+02    0.6935337830E+02    0.5410432053E+02    0    0
   15    2    3    3    0    0    0.1425948715E+02   -0.3259813309E+02   -0.7426903248E+01    0.3639076996E+02    0.1777029991E+01    0    0
  -16    1    3    3    0    0   -0.1603645897E+02    0.1849247551E+02    0.4842063522E+02    0.5425585556E+02    0.0000000000E+00    0    0
   16    1    4    4    0    0   -0.1511006260E+02   -0.1558224010E+02   -0.1711482811E+02    0.2764122963E+02    0.0000000000E+00    0    0
  -15    2    4    4    0    0    0.1688703537E+02    0.2968789864E+02   -0.2387890625E+02    0.4171214676E+02    0.1777029991E+01    0    0
   16    1    5    5    0    0    0.1040791702E+02   -0.2351661873E+02   -0.4568022251E+01    0.2611939621E+02    0.3452669771E-03    0    0
 -211    1    5    5    0    0    0.3852132559E+01   -0.9082800865E+01   -0.2859174013E+01    0.1027280617E+02    0.1395683885E+00    0    0
  -16    1    8    8    0    0    0.3562554717E+00    0.9286062717E+00   -0.5908175111E+00    0.1156846166E+01    0.3207976697E-03    0    0
   24    2    8    8    0    0    0.1653144264E+02    0.2876046181E+02   -0.2328902817E+02    0.4055694199E+02    0.1426202059E+01    0    0
  321    1   12   12    0    0    0.4257935047E+01    0.7296635151E+01   -0.5895901203E+01    0.1031388664E+02    0.4936670363E+00    0    0
  211    1   12   12    0    0    0.3642055750E+01    0.6879440308E+01   -0.5321700096E+01    0.9430335999E+01    0.1395678222E+00    0    0
 -321    1   12   12    0    0    0.8631454468E+01    0.1458438873E+02   -0.1207142830E+02    0.2081272507E+02    0.4936670065E+00    0    0
</event>
<event>
   20 9999    1    0.9119999695E+02    0.7565275169E-02    0.1185000000E+00
   11   -1    0    0    0    0    0.0000000000E+00    0.0000000000E+00    0.8000000000E+02    0.8000000000E+02    0.5109988851E-03    0    0
  -11   -1    0    0    0    0    0.0000000000E+00    0.0000000000E+00   -0.8000000000E+02    0.8000000000E+02    0.5109988851E-03    0    0
  -24    2    1    2    0    0    0.1122041130E+02   -0.1159893990E+02    0.5959707737E+01    0.8291950226E+02    0.8111530304E+02    0    0
   24    2    1    2    0    0   -0.1122041130E+02    0.1159893990E+02   -0.5960341454E+01    0.7707986450E+02    0.7513552094E+02    0    0
   22    1    1    2    0    0    0.9723565597E-07   -0.2376117081E-07    0.6335991202E-03    0.6335991202E-03    0.0000000000E+00    0    0
   15    2    3    3    0    0    0.3030535126E+02   -0.2399375153E+02    0.3063428497E+02    0.4935313416E+02    0.1777029991E+01    0    0
  -16    1    3    3    0    0   -0.1908493996E+02    0.1239481163E+02   -0.2467457771E+02    0.3356636810E+02    0.0000000000E+00    0    0
   16    1    4    4    0    0    0.2034207582E+01   -0.2789719391E+02    0.1350579739E+02    0.3106119728E+02    0.0000000000E+00    0    0
  -15    2    4    4    0    0   -0.1325461864E+02    0.3949613190E+02   -0.1946613884E+02    0.4601866913E+02    0.1777029991E+01    0    0
   16    1    6    6    0    0    0.7478457689E+00   -0.4876997173E+00    0.6532607079E+00    0.1106288314E+01    0.2642899744E-04    0    0
   11    1    6    6    0    0    0.2428560829E+02   -0.1955477524E+02    0.2549574280E+02    0.4027670670E+02    0.4228639591E-03    0    0
  -12    1    6    6    0    0    0.5273090839E+01   -0.3952220917E+01    0.4486487389E+01    0.7972083092E+01    0.3860202269E-03    0    0
  -16    1    9    9    0    0   -0.1168774843E+01    0.3708861828E+01   -0.2007462025E+01    0.4376253605E+01    0.4315837214E-04    0    0
   24    2    9    9    0    0   -0.1208636570E+02    0.3578882599E+02   -0.1745944214E+02    0.4164422607E+02    0.1577701449E+01    0    0
  211    1   14   14    0    0   -0.1674659848E+01    0.4776017189E+01   -0.2320006371E+01    0.5569266796E+01    0.1395680010E+00    0    0
  211    1   14   14    0    0   -0.4677755356E+01    0.1286240292E+02   -0.6130388737E+01    0.1499746418E+02    0.1395678818E+00    0    0
 -211    1   14   14    0    0   -0.3540905118E+00    0.1165278077E+01   -0.5448141098E+00    0.1341474771E+01    0.1395680159E+00    0    0
  111    1   14   14    0    0   -0.2304587364E+01    0.7396143436E+01   -0.3717417240E+01    0.8593688011E+01    0.1349639893E+00    0    0
  111    1   14   14    0    0   -0.9808139801E+00    0.2551954508E+01   -0.1297537804E+01    0.3029238701E+01    0.1349640042E+00    0    0
  111    1   14   14    0    0   -0.2094458580E+01    0.7037030697E+01   -0.3449278593E+01    0.8113094330E+01    0.1349639893E+00    0    0
</event>
<event>
   20 9999    1    0.9119999695E+02    0.7565275169E-02    0.1185000000E+00
   11   -1    0    0    0    0    0.0000000000E+00    0.0000000000E+00    0.8000000000E+02    0.8000000000E+02    0.5109988851E-03    0    0
  -11   -1    0    0    0    0    0.0000000000E+00    0.0000000000E+00   -0.8000000000E+02    0.8000000000E+02    0.5109988851E-03    0    0
  -24    2    1    2    0    0   -0.7965311050E+01    0.8111391068E+01    0.2016329288E+01    0.7970056915E+02    0.7885984039E+02    0    0
   24    2    1    2    0    0    0.7964718819E+01   -0.8110608101E+01   -0.2094915628E+01    0.8022084045E+02    0.7938372040E+02    0    0
   22    1    1    2    0    0    0.5934216897E-03   -0.7820696919E-03    0.7830667496E-01    0.7831282914E-01    0.0000000000E+00    0    0
   22    1    1    2    0    0   -0.1447958084E-05   -0.1057556346E-05    0.2795959299E-03    0.2796016925E-03    0.0000000000E+00    0    0
   15    2    3    3    0    0    0.2125932693E+02   -0.2604395103E+02   -0.5537606716E+01    0.3411845779E+02    0.1777029991E+01    0    0
  -16    1    3    3    0    0   -0.2922463799E+02    0.3415534210E+02    0.7553936005E+01    0.4558211136E+02    0.0000000000E+00    0    0
   16    1    4    4    0    0   -0.3491846466E+02   -0.1204838181E+02    0.1514887929E+01    0.3696968460E+02    0.0000000000E+00    0    0
  -15    2    4    4    0    0    0.4288318634E+02    0.3937773466E+01   -0.3609803438E+01    0.4325115204E+02    0.1777029991E+01    0    0
   16    1    7    7    0    0    0.1585999727E+00   -0.1890641749E+00   -0.1325375140E+00    0.2801172137E+00    0.4939701757E-03    0    0
  -24    2    7    7    0    0    0.2110156441E+02   -0.2585591125E+02   -0.5405287266E+01    0.3383968353E+02    0.1450173378E+01    0    0
  111    1   12   12    0    0    0.1180697155E+02   -0.1412518978E+02   -0.3126844645E+01    0.1867407036E+02    0.1349642277E+00    0    0
  111    1   12   12    0    0    0.2682578564E+01   -0.3116999865E+01   -0.3946068883E+00    0.4133502960E+01    0.1349640936E+00    0    0
 -321    1   12   12    0    0    0.6612011909E+01   -0.8613719940E+01   -0.1883835316E+01    0.1103210831E+02    0.4936669469E+00    0    0
  -16    1   10   10    0    0    0.1073600292E+02    0.1027143836E+01   -0.1247001410E+01    0.1085687733E+02    0.3452669771E-03    0    0
   24    2   10   10    0    0    0.3214886856E+02    0.2910784483E+01   -0.2362944126E+01    0.3239597702E+02    0.1375962257E+01    0    0
  111    1   17   17    0    0    0.5084060192E+01    0.7011299133E+00   -0.4491121173E+00    0.5153558731E+01    0.1349640340E+00    0    0
  111    1   17   17    0    0    0.1623679352E+02    0.1577054262E+01   -0.1367431045E+01    0.1637096977E+02    0.1349632591E+00    0    0
  321    1   17   17    0    0    0.1082801723E+02    0.6326004863E+00   -0.5464010239E+00    0.1087144947E+02    0.4936670065E+00    0    0
</event>
<event>
   25 9999    1    0.9119999695E+02    0.7565275169E-02    0.1185000000E+00
   11   -1    0    0    0    0    0.0000000000E+00    0.0000000000E+00    0.8000000000E+02    0.8000000000E+02    0.5109988851E-03    0    0
  -11   -1    0    0    0    0    0.0000000000E+00    0.0000000000E+00   -0.8000000000E+02    0.8000000000E+02    0.5109988851E-03    0    0
  -24    2    1    2    0    0    0.1307036972E+02   -0.3591205359E+01    0.2102138519E+02    0.7933270264E+02    0.7528643799E+02    0    0
   24    2    1    2    0    0   -0.1306758690E+02    0.3582141161E+01   -0.2116192818E+02    0.8052539825E+02    0.7650437164E+02    0    0
   22    1    1    2    0    0   -0.1482380139E-04    0.4760160664E-05    0.1081680879E+00    0.1081680954E+00    0.0000000000E+00    0    0
   22    1    1    2    0    0   -0.2768466016E-02    0.9059459902E-02    0.3237602860E-01    0.3373344615E-01    0.0000000000E+00    0    0
   15    2    3    3    0    0   -0.1897392845E+02    0.2041542625E+02    0.2700484467E+02    0.3884866714E+02    0.1777029991E+01    0    0
  -16    1    3    3    0    0    0.3204429626E+02   -0.2400662994E+02   -0.5983460426E+01    0.4048403549E+02    0.0000000000E+00    0    0
   16    1    4    4    0    0    0.1652222633E+02    0.2180899048E+02   -0.3381499481E+02    0.4349793243E+02    0.0000000000E+00    0    0
  -15    2    4    4    0    0   -0.2958981323E+02   -0.1822684860E+02    0.1265306759E+02    0.3702746201E+02    0.1777029991E+01    0    0
   16    1    7    7    0    0   -0.1187405348E+01    0.1207734942E+01    0.1443637609E+01    0.2225453854E+01    0.6103515625E-04    0    0
  -24    2    7    7    0    0   -0.1778726959E+02    0.1920849419E+02    0.2556227112E+02    0.3662474442E+02    0.1609030724E+01    0    0
 -211    1   12   12    0    0   -0.2536511660E+01    0.3035243034E+01    0.3575096130E+01    0.5333609104E+01    0.1395679414E+00    0    0
 -211    1   12   12    0    0   -0.7956406116E+01    0.8580949783E+01    0.1208372879E+02    0.1682180405E+02    0.1395678520E+00    0    0
 -211    1   12   12    0    0   -0.2726315975E+01    0.3089149714E+01    0.4020185471E+01    0.5758212566E+01    0.1395679861E+00    0    0
  211    1   12   12    0    0   -0.2638982058E+01    0.2472788334E+01    0.3240631819E+01    0.4857991695E+01    0.1395680457E+00    0    0
  211    1   12   12    0    0   -0.1929053903E+01    0.2030364037E+01    0.2642629385E+01    0.3853127956E+01    0.1395679861E+00    0    0
  -16    1   10   10    0    0   -0.4005984783E+01   -0.2442020178E+01    0.1839668512E+01    0.5039420128E+01    0.4315837214E-04    0    0
   24    2   10   10    0    0   -0.2558499336E+02   -0.1578554630E+02    0.1081389713E+02    0.3198950005E+02    0.1616296291E+01    0    0
  211    1   19   19    0    0   -0.1970137119E+01   -0.9377149343E+00    0.7291854024E+00    0.2304764748E+01    0.1395680159E+00    0    0
  211    1   19   19    0    0   -0.2163033247E+01   -0.1369599104E+01    0.8515722156E+00    0.2701697350E+01    0.1395679861E+00    0    0
 -211    1   19   19    0    0   -0.2531368494E+01   -0.1396311402E+01    0.1187079549E+01    0.3128282070E+01    0.1395679712E+00    0    0
  111    1   19   19    0    0   -0.7922019005E+01   -0.5143521786E+01    0.3404100418E+01    0.1004093266E+02    0.1349639744E+00    0    0
  111    1   19   19    0    0   -0.5084870815E+01   -0.3304637909E+01    0.2301638365E+01    0.6487857819E+01    0.1349639893E+00    0    0
  111    1   19   19    0    0   -0.5913564205E+01   -0.3633760929E+01    0.2340321302E+01    0.7325966358E+01    0.1349639893E+00    0    0
</event>
<event>
   19 9999    1    0.9119999695E+02    0.7565275169E-02    0.1185000000E+00
   11   -1    0    0    0    0    0.0000000000E+00    0.0000000000E+00    0.8000000000E+02    0.8000000000E+02    0.5109988851E-03    0    0
  -11   -1    0    0    0    0    0.0000000000E+00    0.0000000000E+00   -0.8000000000E+02    0.8000000000E+02    0.5109988851E-03    0    0
  -24    2    1    2    0    0   -0.9266603470E+01    0.1041196585E+01   -0.3131139517E+01    0.7836254883E+02    0.7774272156E+02    0    0
   24    2    1    2    0    0    0.9266217232E+01   -0.1041230083E+01    0.3154667377E+01    0.8161392212E+02    0.8101810455E+02    0    0
   22    1    1    2    0    0    0.3861994774E-03    0.3350303814E-04   -0.2352781408E-01    0.2353100665E-01    0.0000000000E+00    0    0
   15    2    3    3    0    0   -0.9688508987E+01    0.3224212265E+02    0.2028897667E+02    0.3934745407E+02    0.1777029991E+01    0    0
  -16    1    3    3    0    0    0.4219057858E+00   -0.3120092583E+02   -0.2342011642E+02    0.3901509476E+02    0.0000000000E+00    0    0
   16    1    4    4    0    0    0.2459615135E+02   -0.1259339809E+02   -0.3153439522E+02    0.4192830276E+02    0.0000000000E+00    0    0
  -15    2    4    4    0    0   -0.1532993412E+02    0.1155216789E+02    0.3468906403E+02    0.3968561935E+02    0.1777029991E+01    0    0
   16    1    6    6    0    0   -0.2774948180E+00    0.8038371801E+00    0.2234277725E+00    0.8792482615E+00    0.1831054688E-03    0    0
 -321    1    6    6    0    0   -0.9411396027E+01    0.3143955612E+02    0.2006634903E+02    0.3846975708E+02    0.4936670959E+00    0    0
  -16    1    9    9    0    0   -0.1218806624E+01    0.9820737243E+00    0.2913788080E+01    0.3307585001E+01    0.2642899744E-04    0    0
   24    2    9    9    0    0   -0.1411173153E+02    0.1057054901E+02    0.3177663994E+02    0.3637959671E+02    0.1686033964E+01    0    0
  211    1   13   13    0    0   -0.3014197826E+01    0.2590264082E+01    0.6683511734E+01    0.7777124405E+01    0.1395679563E+00    0    0
  211    1   13   13    0    0   -0.7816013694E+00    0.5416781306E+00    0.1943356991E+01    0.2168047905E+01    0.1395679861E+00    0    0
 -211    1   13   13    0    0   -0.2577733278E+01    0.1924131036E+01    0.6180516243E+01    0.6968876839E+01    0.1395679861E+00    0    0
  111    1   13   13    0    0   -0.1748924136E+01    0.1149484754E+01    0.3647441864E+01    0.4207386017E+01    0.1349640042E+00    0    0
  111    1   13   13    0    0   -0.4189042091E+01    0.3076812267E+01    0.8784970284E+01    0.1020826912E+02    0.1349640042E+00    0    0
  111    1   13   13    0    0   -0.1800232649E+01    0.1288178802E+01    0.4536844254E+01    0.5049892426E+01    0.1349640340E+00    0    0
</event>
<event>
   17 9999    1    0.9119999695E+02    0.7565275169E-02    0.1185000000E+00
   11   -1    0    0    0    0    0.0000000000E+00    0.0000000000E+00    0.8000000000E+02    0.8000000000E+02    0.5109988851E-03    0    0
  -11   -1    0    0    0    0    0.0000000000E+00    0.0000000000E+00   -0.8000000000E+02    0.8000000000E+02    0.5109988851E-03    0    0
  -24    2    1    2    0    0   -0.7269690990E+01    0.3116707563E+01   -0.3780658960E+01    0.8017274475E+02    0.7969198608E+02    0    0
   24    2    1    2    0    0    0.7269690990E+01   -0.3116707563E+01    0.3780658960E+01    0.7982725525E+02    0.7934440613E+02    0    0
   15    2    3    3    0    0   -0.2335745811E+02    0.1723847198E+02    0.2896745872E+02    0.4104883957E+02    0.1777029991E+01    0    0
  -16    1    3    3    0    0    0.1608776665E+02   -0.1412176418E+02   -0.3274811935E+02    0.3912390137E+02    0.0000000000E+00    0    0
   16    1    4    4    0    0   -0.2083525276E+02   -0.1393611431E+02   -0.2692119408E+02    0.3678414917E+02    0.0000000000E+00    0    0
  -15    2    4    4    0    0    0.2810494423E+02    0.1081940651E+02    0.3070185280E+02    0.4304310608E+02    0.1777029991E+01    0    0
   16    1    5    5    0    0   -0.7001708984E+01    0.5492858887E+01    0.9767724991E+01    0.1321377659E+02    0.1726334885E-03    0    0
 -213    2    5    5    0    0   -0.1635666847E+02    0.1174629211E+02    0.1920087433E+02    0.2783667946E+02    0.8313856721E+00    0    0
 -211    1   10   10    0    0   -0.1010151386E+02    0.7210994244E+01    0.1130694962E+02    0.1679004478E+02    0.1395679563E+00    0    0
  111    1   10   10    0    0   -0.6255155087E+01    0.4535297871E+01    0.7893924236E+01    0.1104663467E+02    0.1349640787E+00    0    0
  -16    1    8    8    0    0    0.4725677148E-01    0.8799867705E-02    0.4812044650E-01    0.6801620126E-01    0.1158888408E-03    0    0
   24    2    8    8    0    0    0.2805879402E+02    0.1081103230E+02    0.3065494156E+02    0.4297678757E+02    0.1761906624E+01    0    0
  221    1   14   14    0    0    0.4566637516E+01    0.1541645765E+01    0.5203519344E+01    0.7113975525E+01    0.5487999916E+00    0    0
  211    1   14   14    0    0    0.2066847610E+02    0.8150629997E+01    0.2267044449E+02    0.3174251366E+02    0.1395681202E+00    0    0
  111    1   14   14    0    0    0.2823681593E+01    0.1118757010E+01    0.2780978441E+01    0.4120297432E+01    0.1349640489E+00    0    0
</event>
<event>
   22 9999    1    0.9119999695E+02    0.7565275169E-02    0.1185000000E+00
   11   -1    0    0    0    0    0.0000000000E+00    0.0000000000E+00    0.8000000000E+02    0.8000000000E+02    0.5109988851E-03    0    0
  -11   -1    0    0    0    0    0.0000000000E+00    0.0000000000E+00   -0.8000000000E+02    0.8000000000E+02    0.5109988851E-03    0    0
  -24    2    1    2    0    0    0.4315407753E+01   -0.6799322128E+01    0.1920526123E+02    0.8395473480E+02    0.8133081818E+02    0    0
   24    2    1    2    0    0   -0.4321995735E+01    0.6795156956E+01   -0.1921382141E+02    0.7603368378E+02    0.7312384796E+02    0    0
   22    1    1    2    0    0    0.6588316057E-02    0.4165032879E-02    0.8560088463E-02    0.1157706883E-01    0.0000000000E+00    0    0
   15    2    3    3    0    0    0.1098126888E+02    0.3616317749E+02    0.1316586304E+02    0.4006072235E+02    0.1777029991E+01    0    0
  -16    1    3    3    0    0   -0.6665861607E+01   -0.4296250153E+02    0.6039398670E+01    0.4389401245E+02    0.0000000000E+00    0    0
   16    1    4    4    0    0   -0.3436808014E+02    0.1260049915E+02    0.5033590794E+01    0.3694962311E+02    0.0000000000E+00    0    0
  -15    2    4    4    0    0    0.3004608536E+02   -0.5805342197E+01   -0.2424741173E+02    0.3908406448E+02    0.1777029991E+01    0    0
   16    1    6    6    0    0    0.1935153246E+01    0.7279788494E+01    0.2965572834E+01    0.8095354080E+01    0.3762459673E-03    0    0
  -24    2    6    6    0    0    0.9046547890E+01    0.2888481331E+02    0.1020080853E+02    0.3196694565E+02    0.1287106514E+01    0    0
 -211    1   11   11    0    0    0.3294830799E+01    0.9211319923E+01    0.3275993586E+01    0.1031774902E+02    0.1395676881E+00    0    0
  111    1   11   11    0    0    0.1134063601E+01    0.3235682487E+01    0.9581018090E+00    0.3562571526E+01    0.1349641681E+00    0    0
   22    1   11   11    0    0    0.4617654324E+01    0.1643781090E+02    0.5966713428E+01    0.1808662605E+02    0.2834707557E-03    0    0
  -16    1    9    9    0    0    0.9283904433E+00   -0.1431564093E+00   -0.7945653796E+00    0.1230340123E+01    0.2157918607E-04    0    0
   24    2    9    9    0    0    0.2911887550E+02   -0.5662414074E+01   -0.2345380020E+02    0.3785526276E+02    0.1722830415E+01    0    0
  211    1   16   16    0    0    0.9193097115E+01   -0.1764851928E+01   -0.7077612877E+01    0.1173626137E+02    0.1395679563E+00    0    0
  211    1   16   16    0    0    0.8649238586E+01   -0.1844425082E+01   -0.7099971771E+01    0.1134197140E+02    0.1395679116E+00    0    0
  211    1   16   16    0    0    0.2234981537E+01   -0.2028822750E+00   -0.1828905463E+01    0.2898392439E+01    0.1395679712E+00    0    0
 -211    1   16   16    0    0    0.3736096382E+01   -0.7179154158E+00   -0.2792356730E+01    0.4721287251E+01    0.1395679712E+00    0    0
 -211    1   16   16    0    0    0.1357507706E+01   -0.3561675847E+00   -0.1256662726E+01    0.1889011025E+01    0.1395679414E+00    0    0
  111    1   16   16    0    0    0.3947954178E+01   -0.7761719823E+00   -0.3398290873E+01    0.5268337727E+01    0.1349639744E+00    0    0
</event>
<event>
   20 9999    1    0.9119999695E+02    0.7565275169E-02    0.1185000000E+00
   11   -1    0    0    0    0    0.0000000000E+00    0.0000000000E+00    0.8000000000E+02    0.8000000000E+02    0.5109988851E-03    0    0
  -11   -1    0    0    0    0    0.0000000000E+00    0.0000000000E+00   -0.8000000000E+02    0.8000000000E+02    0.5109988851E-03    0    0
  -24    2    1    2    0    0   -0.8449571609E+01   -0.2778094053E+01   -0.7049279213E+01    0.8102094269E+02    0.8022211456E+02    0    0
   24    2    1    2    0    0    0.8449549675E+01    0.2778086185E+01    0.7047595024E+01    0.7897737122E+02    0.7815781403E+02    0    0
   22    1    1    2    0    0   -0.1936345528E-08   -0.1016168909E-06    0.1477295300E-02    0.1477295300E-02    0.0000000000E+00    0    0
   22    1    1    2    0    0    0.3903754120E-07    0.2724489079E-08    0.1090775186E-03    0.1090775258E-03    0.0000000000E+00    0    0
   22    1    1    2    0    0    0.2217117071E-04    0.8122113286E-05    0.9768695600E-04    0.1005001031E-03    0.0000000000E+00    0    0
   15    2    3    3    0    0    0.2837573242E+02    0.2190029526E+02   -0.7616741180E+01    0.3668756866E+02    0.1777029991E+01    0    0
  -16    1    3    3    0    0   -0.3682530594E+02   -0.2467838860E+02    0.5674623251E+00    0.4433337402E+02    0.0000000000E+00    0    0
   16    1    4    4    0    0    0.3633457565E+02    0.2402559662E+02    0.3806307554E+01    0.4372549057E+02    0.0000000000E+00    0    0
  -15    2    4    4    0    0   -0.2788502502E+02   -0.2124751091E+02    0.3241287470E+01    0.3525188065E+02    0.1777029991E+01    0    0
   16    1    8    8    0    0    0.5473709583E+01    0.4524204254E+01   -0.2000595331E+01    0.7377825260E+01    0.0000000000E+00    0    0
 -323    2    8    8    0    0    0.2290314102E+02    0.1737695503E+02   -0.5616446495E+01    0.2931119156E+02    0.1043534279E+01    0    0
 -211    1   13   13    0    0    0.1228860760E+02    0.9597449303E+01   -0.3331936121E+01    0.1594497395E+02    0.1395679116E+00    0    0
  130    1   13   13    0    0    0.1061453438E+02    0.7779505730E+01   -0.2284510136E+01    0.1336621666E+02    0.4977199435E+00    0    0
  -16    1   11   11    0    0   -0.1006073570E+02   -0.7606605530E+01    0.1111423254E+01    0.1266152096E+02    0.3585003724E-03    0    0
   24    2   11   11    0    0   -0.1782538605E+02   -0.1364174080E+02    0.2129991770E+01    0.2259174728E+02    0.1417273641E+01    0    0
  130    1   17   17    0    0   -0.6570866108E+01   -0.4770472050E+01    0.9372055531E+00    0.8189002037E+01    0.4977200329E+00    0    0
  211    1   17   17    0    0   -0.3522124767E+01   -0.2982857943E+01    0.5367533565E+00    0.4648697376E+01    0.1395679861E+00    0    0
  130    1   17   17    0    0   -0.7732398987E+01   -0.5888412952E+01    0.6560330987E+00    0.9754050255E+01    0.4977200627E+00    0    0
</event>
<event>
   18 9999    1    0.9119999695E+02    0.7565275169E-02    0.1185000000E+00
   11   -1    0    0    0    0    0.0000000000E+00    0.0000000000E+00    0.8000000000E+02    0.8000000000E+02    0.5109988851E-03    0    0
  -11   -1    0    0    0    0    0.0000000000E+00    0.0000000000E+00   -0.8000000000E+02    0.8000000000E+02    0.5109988851E-03    0    0
  -24    2    1    2    0    0   -0.4102657795E+01    0.7184615612E+01    0.8901780128E+01    0.8026996613E+02    0.7934466553E+02    0    0
   24    2    1    2    0    0    0.4102657795E+01   -0.7184615612E+01   -0.8901780128E+01    0.7973003387E+02    0.7879838562E+02    0    0
   15    2    3    3    0    0   -0.1532411385E+02   -0.8479634285E+01    0.3999075317E+02    0.4369382858E+02    0.1777029991E+01    0    0
  -16    1    3    3    0    0    0.1122145653E+02    0.1566424942E+02   -0.3108897209E+02    0.3657613754E+02    0.0000000000E+00    0    0
   16    1    4    4    0    0   -0.2592651939E+02    0.2236198807E+02   -0.1452460575E+02    0.3719149399E+02    0.0000000000E+00    0    0
  -15    2    4    4    0    0    0.3002917671E+02   -0.2954660416E+02    0.5622826099E+01    0.4253853989E+02    0.1777029991E+01    0    0
   16    1    5    5    0    0   -0.4021896839E+01   -0.2287460804E+01    0.1041321850E+02    0.1139487839E+02    0.3363862343E-03    0    0
  -24    2    5    5    0    0   -0.1130282021E+02   -0.6192506790E+01    0.2957910728E+02    0.3230067062E+02    0.1519493937E+01    0    0
 -321    1   10   10    0    0   -0.2120102882E+01   -0.1502740383E+01    0.6062117100E+01    0.6614078522E+01    0.4936669469E+00    0    0
 -211    1   10   10    0    0   -0.5334599495E+01   -0.2399138451E+01    0.1346820068E+02    0.1468420029E+02    0.1395680159E+00    0    0
  211    1   10   10    0    0   -0.3848117590E+01   -0.2290628195E+01    0.1004878807E+02    0.1100239182E+02    0.1395678818E+00    0    0
  -16    1    8    8    0    0    0.8815331459E+01   -0.8971731186E+01    0.1648460388E+01    0.1268540287E+02    0.4924950190E-03    0    0
   24    2    8    8    0    0    0.2121502495E+02   -0.2057603645E+02    0.3974586725E+01    0.2985480881E+02    0.1435864210E+01    0    0
  310    1   15   15    0    0    0.6415603161E+01   -0.6397846699E+01    0.1144393444E+01    0.9146024704E+01    0.4977200031E+00    0    0
  211    1   15   15    0    0    0.4584058285E+01   -0.4785304070E+01    0.8844262958E+00    0.6686883926E+01    0.1395677775E+00    0    0
  310    1   15   15    0    0    0.1021536446E+02   -0.9392886162E+01    0.1945767045E+01    0.1402190113E+02    0.4977199137E+00    0    0
</event>
<event>
   20 9999    1    0.9119999695E+02    0.7565275169E-02    0.1185000000E+00
   11   -1    0    0    0    0    0.0000000000E+00    0.0000000000E+00    0.8000000000E+02    0.8000000000E+02    0.5109988851E-03    0    0
  -11   -1    0    0    0    0    0.0000000000E+00    0.0000000000E+00   -0.8000000000E+02    0.8000000000E+02    0.5109988851E-03    0    0
  -24    2    1    2    0    0    0.4852863789E+01    0.1513679218E+02   -0.4866156101E+01    0.8458590698E+02    0.8293626404E+02    0    0
   24    2    1    2    0    0   -0.4852863789E+01   -0.1513679218E+02    0.4866156101E+01    0.7541409302E+02    0.7355904388E+02    0    0
   15    2    3    3    0    0    0.1660344315E+02   -0.6371266365E+01    0.3413067245E+02    0.3852697754E+02    0.1777029991E+01    0    0
  -16    1    3    3    0    0   -0.1175057888E+02    0.2150805855E+02   -0.3899682999E+02    0.4605893326E+02    0.0000000000E+00    0    0
   16    1    4    4    0    0    0.3069356728E+02   -0.7111165524E+01    0.1841685677E+02    0.3649444199E+02    0.0000000000E+00    0    0
  -15    2    4    4    0    0   -0.3554643250E+02   -0.8025627136E+01   -0.1355070114E+02    0.3891964722E+02    0.1777029991E+01    0    0
   16    1    5    5    0    0    0.4989239693E+01   -0.1671256542E+01    0.9608911514E+01    0.1095521736E+02    0.4294203827E-03    0    0
  -24    2    5    5    0    0    0.1161485577E+02   -0.4700260639E+01    0.2452310371E+02    0.2757327652E+02    0.1380424738E+01    0    0
  221    1   10   10    0    0    0.5850803375E+01   -0.2594989300E+01    0.1275836563E+02    0.1428435993E+02    0.5488001108E+00    0    0
 -211    1   10   10    0    0    0.3959381819E+01   -0.1587827802E+01    0.7548944950E+01    0.8672020912E+01    0.1395679116E+00    0    0
  111    1   10   10    0    0    0.1804671049E+01   -0.5174432397E+00    0.4215793610E+01    0.4616894722E+01    0.1349640042E+00    0    0
  -16    1    8    8    0    0   -0.1034040809E+01   -0.7633470744E-01   -0.2876100540E+00    0.1076005101E+01    0.1779465238E-03    0    0
   24    2    8    8    0    0   -0.3451379013E+02   -0.7949607849E+01   -0.1326362419E+02    0.3784517288E+02    0.1391182065E+01    0    0
  211    1   15   15    0    0   -0.4595901966E+01   -0.1191720366E+01   -0.1774538159E+01    0.5070599556E+01    0.1395686716E+00    0    0
  211    1   15   15    0    0   -0.3905742884E+01   -0.9623177052E+00   -0.1249856710E+01    0.4214558601E+01    0.1395680159E+00    0    0
 -211    1   15   15    0    0   -0.4156378746E+01   -0.8295770884E+00   -0.1451661587E+01    0.4482240677E+01    0.1395679563E+00    0    0
  111    1   15   15    0    0   -0.1103339577E+02   -0.2637660742E+01   -0.4334404945E+01    0.1214489079E+02    0.1349639446E+00    0    0
  111    1   15   15    0    0   -0.1082236671E+02   -0.2328330755E+01   -0.4453160763E+01    0.1193287849E+02    0.1349639744E+00    0    0
</event>
<event>
   20 9999    1    0.9119999695E+02    0.7565275169E-02    0.1185000000E+00
   11   -1    0    0    0    0    0.0000000000E+00    0.0000000000E+00    0.8000000000E+02    0.8000000000E+02    0.5109988851E-03    0    0
  -11   -1    0    0    0    0    0.0000000000E+00    0.0000000000E+00   -0.8000000000E+02    0.8000000000E+02    0.5109988851E-03    0    0
  -24    2    1    2    0    0   -0.1730022621E+02   -0.1364389229E+02   -0.1842335701E+02    0.8552335358E+02    0.8055662537E+02    0    0
   24    2    1    2    0    0    0.1730035782E+02    0.1364587593E+02    0.1894112015E+02    0.7393762970E+02    0.6798892975E+02    0    0
   22    1    1    2    0    0   -0.1320937154E-03   -0.1983249560E-02   -0.5283903480E+00    0.5283941031E+00    0.0000000000E+00    0    0
   22    1    1    2    0    0   -0.1984494929E-05   -0.1357600468E-05    0.9179254994E-02    0.9179254994E-02    0.0000000000E+00    0    0
   22    1    1    2    0    0    0.2410933575E-05    0.4760709373E-06    0.1124314615E-02    0.1124317292E-02    0.0000000000E+00    0    0
   22    1    1    2    0    0   -0.1015085971E-07    0.3725316944E-08    0.3242808161E-03    0.3242808161E-03    0.0000000000E+00    0    0
   15    2    3    3    0    0    0.1280159378E+02   -0.2048478699E+02    0.2330874062E+02    0.3361491776E+02    0.1777029991E+01    0    0
  -16    1    3    3    0    0   -0.3010181999E+02    0.6840895653E+01   -0.4173209763E+02    0.5190843201E+02    0.0000000000E+00    0    0
   16    1    4    4    0    0    0.2789866066E+02   -0.2107201195E+02    0.1179804993E+02    0.3689930725E+02    0.0000000000E+00    0    0
  -15    2    4    4    0    0   -0.1059830379E+02    0.3471788788E+02    0.7143070221E+01    0.3703831863E+02    0.1777029991E+01    0    0
   16    1    9    9    0    0    0.2450883627E+01   -0.4483143806E+01    0.4928874493E+01    0.7099240303E+01    0.1398491149E-03    0    0
   11    1    9    9    0    0    0.6926797390E+01   -0.1176295280E+02    0.1355722618E+02    0.1923917770E+02    0.4882812500E-03    0    0
  -12    1    9    9    0    0    0.3424417019E+01   -0.4239497662E+01    0.4823557854E+01    0.7277821541E+01    0.2441406250E-03    0    0
  -16    1   12   12    0    0   -0.3116297245E+01    0.1094304752E+02    0.1834424376E+01    0.1152504730E+02    0.2990099892E-03    0    0
   24    2   12   12    0    0   -0.7482423306E+01    0.2377620697E+02    0.5308927059E+01    0.2551473045E+02    0.1233713150E+01    0    0
  211    1   17   17    0    0   -0.1427923143E+00    0.6421272755E+00    0.1023522690E+00    0.6802002192E+00    0.1395681798E+00    0    0
  111    1   17   17    0    0   -0.5897033691E+01    0.1889999580E+02    0.3963019133E+01    0.2019179344E+02    0.1349641085E+00    0    0
   22    1   17   17    0    0   -0.1442596555E+01    0.4234083652E+01    0.1243555307E+01    0.4642734051E+01    0.8631674427E-04    0    0
</event>
<event>
   17 9999    1    0.9119999695E+02    0.7565275169E-02    0.1185000000E+00
   11   -1    0    0    0    0    0.0000000000E+00    0.0000000000E+00    0.8000000000E+02    0.8000000000E+02    0.5109988851E-03    0    0
  -11   -1    0    0    0    0    0.0000000000E+00    0.0000000000E+00   -0.8000000000E+02    0.8000000000E+02    0.5109988851E-03    0    0
  -24    2    1    2    0    0   -0.3668325663E+01    0.4678243637E+01    0.2080163574E+02    0.8091491699E+02    0.7796904755E+02    0    0
   24    2    1    2    0    0    0.3668325663E+01   -0.4678243637E+01   -0.2080163574E+02    0.7908508301E+02    0.7606838989E+02    0    0
   15    2    3    3    0    0    0.3631774521E+02   -0.5853753567E+01    0.1062056923E+02    0.3833013916E+02    0.1777029991E+01    0    0
  -16    1    3    3    0    0   -0.3998607254E+02    0.1053199768E+02    0.1018106651E+02    0.4258477402E+02    0.0000000000E+00    0    0
   16    1    4    4    0    0   -0.9439665079E+00   -0.2345965958E+02    0.2194241142E+02    0.3213589859E+02    0.0000000000E+00    0    0
  -15    2    4    4    0    0    0.4612292290E+01    0.1878141594E+02   -0.4274404526E+02    0.4694918823E+02    0.1777029991E+01    0    0
   16    1    5    5    0    0    0.2404484367E+02   -0.3587775707E+01    0.6880201817E+01    0.2526586342E+02    0.1495049946E-03    0    0
 -323    2    5    5    0    0    0.1227433205E+02   -0.2266207933E+01    0.3740784883E+01    0.1306578350E+02    0.9624437094E+00    0    0
 -211    1   10   10    0    0    0.4801171303E+01   -0.1207673192E+01    0.1594186187E+01    0.5202944279E+01    0.1395681798E+00    0    0
  310    1   10   10    0    0    0.7473161697E+01   -0.1058534980E+01    0.2146599054E+01    0.7862840176E+01    0.4977200329E+00    0    0
  -16    1    8    8    0    0    0.2406501025E+00    0.1368238688E+01   -0.3750341654E+01    0.3999381542E+01    0.3662109375E-03    0    0
   24    2    8    8    0    0    0.4371823788E+01    0.1741391563E+02   -0.3899538422E+02    0.4295165253E+02    0.1359038830E+01    0    0
  321    1   14   14    0    0    0.2075405836E+01    0.7777914524E+01   -0.1682868195E+02    0.1866149902E+02    0.4936670661E+00    0    0
  111    1   14   14    0    0    0.7872905731E+00    0.3781948566E+01   -0.8465864182E+01    0.9306558609E+01    0.1349631399E+00    0    0
  130    1   14   14    0    0    0.1509128213E+01    0.5854056358E+01   -0.1370084763E+02    0.1498360443E+02    0.4977199733E+00    0    0
</event>
<event>
   23 9999    1    0.9119999695E+02    0.7565275169E-02    0.1185000000E+00
   11   -1    0    0    0    0    0.0000000000E+00    0.0000000000E+00    0.8000000000E+02    0.8000000000E+02    0.5109988851E-03    0    0
  -11   -1    0    0    0    0    0.0000000000E+00    0.0000000000E+00   -0.8000000000E+02    0.8000000000E+02    0.5109988851E-03    0    0
  -24    2    1    2    0    0    0.4819994450E+01    0.6451821327E+01    0.5773133278E+01    0.7900096130E+02    0.7837706757E+02    0    0
   24    2    1    2    0    0   -0.4819212437E+01   -0.6450532436E+01   -0.6172106743E+01    0.8040492249E+02    0.7976229095E+02    0    0
   22    1    1    2    0    0    0.1603244345E-04   -0.2611910531E-05    0.4965269566E+00    0.4965269566E+00    0.0000000000E+00    0    0
   22    1    1    2    0    0   -0.2018221494E-05   -0.2276238718E-06   -0.5988312140E-01    0.5988312140E-01    0.0000000000E+00    0    0
   22    1    1    2    0    0   -0.7956846966E-03   -0.1286137383E-02   -0.3753192350E-01    0.3756238148E-01    0.0000000000E+00    0    0
   22    1    1    2    0    0   -0.1558890830E-06    0.1491207371E-06   -0.1382260816E-03    0.1382262562E-03    0.0000000000E+00    0    0
   15    2    3    3    0    0   -0.2165069199E+02    0.6233828545E+01    0.3366470718E+02    0.4054729843E+02    0.1777029991E+01    0    0
  -16    1    3    3    0    0    0.2647068596E+02    0.2179929018E+00   -0.2789157295E+02    0.3845366669E+02    0.0000000000E+00    0    0
   16    1    4    4    0    0    0.3756538153E+01    0.2020403481E+02    0.2891870880E+02    0.3547684097E+02    0.0000000000E+00    0    0
  -15    2    4    4    0    0   -0.8575750351E+01   -0.2665456581E+02   -0.3509081650E+02    0.4492808151E+02    0.1777029991E+01    0    0
   16    1    9    9    0    0   -0.6476899147E+01    0.1702759743E+01    0.1033872509E+02    0.1231823254E+02    0.4648299073E-03    0    0
  -24    2    9    9    0    0   -0.1517464447E+02    0.4531314373E+01    0.2332730484E+02    0.2823066139E+02    0.1415757179E+01    0    0
 -211    1   14   14    0    0   -0.4770389557E+01    0.1778696775E+01    0.7305304050E+01    0.8905466080E+01    0.1395679712E+00    0    0
  310    1   14   14    0    0   -0.6129950047E+01    0.1734028578E+01    0.8915992737E+01    0.1096931076E+02    0.4977200031E+00    0    0
  111    1   14   14    0    0   -0.4274304390E+01    0.1018588662E+01    0.7106008530E+01    0.8355882645E+01    0.1349640638E+00    0    0
  -16    1   12   12    0    0   -0.2399897575E+01   -0.6304002762E+01   -0.8160701752E+01    0.1058758831E+02    0.2242574847E-03    0    0
   24    2   12   12    0    0   -0.6176190853E+01   -0.2035161209E+02   -0.2693149567E+02    0.3434226227E+02    0.1323683023E+01    0    0
  211    1   19   19    0    0   -0.2614326715E+01   -0.8986120224E+01   -0.1219590569E+02    0.1537350464E+02    0.1395680457E+00    0    0
  211    1   19   19    0    0   -0.1046529889E+01   -0.2446504831E+01   -0.3182909727E+01    0.4151024342E+01    0.1395682395E+00    0    0
 -211    1   19   19    0    0   -0.2034236908E+01   -0.7588200092E+01   -0.9815408707E+01    0.1257301140E+02    0.1395680457E+00    0    0
  111    1   19   19    0    0   -0.4810971916E+00   -0.1330788255E+01   -0.1737271190E+01    0.2244722366E+01    0.1349640191E+00    0    0
</event>
<event>
   17 9999    1    0.9119999695E+02    0.7565275169E-02    0.1185000000E+00
   11   -1    0    0    0    0    0.0000000000E+00    0.0000000000E+00    0.8000000000E+02    0.8000000000E+02    0.5109988851E-03    0    0
  -11   -1    0    0    0    0    0.0000000000E+00    0.0000000000E+00   -0.8000000000E+02    0.8000000000E+02    0.5109988851E-03    0    0
  -24    2    1    2    0    0   -0.1656777954E+02    0.4356015682E+01    0.1124099064E+02    0.8350019073E+02    0.8094723511E+02    0    0
   24    2    1    2    0    0    0.1656777954E+02   -0.4356015682E+01   -0.1124099064E+02    0.7649980927E+02    0.7370478821E+02    0    0
   15    2    3    3    0    0    0.1669486618E+02    0.3179508448E+01    0.3743176270E+02    0.4114756775E+02    0.1777029991E+01    0    0
  -16    1    3    3    0    0   -0.3326264572E+02    0.1176507235E+01   -0.2619077110E+02    0.4235261917E+02    0.0000000000E+00    0    0
   16    1    4    4    0    0   -0.1059135437E+02    0.2602050591E+02   -0.2037396812E+02    0.3470363235E+02    0.0000000000E+00    0    0
  -15    2    4    4    0    0    0.2715913391E+02   -0.3037652206E+02    0.9132977486E+01    0.4179618073E+02    0.1777029991E+01    0    0
   16    1    5    5    0    0    0.1460110545E+01    0.9507014602E-01    0.2761842012E+01    0.3125497103E+01    0.4526488192E-03    0    0
  -24    2    5    5    0    0    0.1523541355E+02    0.3084563494E+01    0.3467139435E+02    0.3802369308E+02    0.1436419249E+01    0    0
 -321    1   10   10    0    0    0.7403129101E+01    0.1403271198E+01    0.1667998886E+02    0.1830959511E+02    0.4936670959E+00    0    0
 -211    1   10   10    0    0    0.2742580414E+01    0.5112032294E+00    0.5597440243E+01    0.6255709171E+01    0.1395680010E+00    0    0
  321    1   10   10    0    0    0.5089705467E+01    0.1170089364E+01    0.1239396763E+02    0.1345839310E+02    0.4936670661E+00    0    0
  -16    1    8    8    0    0    0.1797561646E+02   -0.2097067070E+02    0.6085444927E+01    0.2828293610E+02    0.2242574847E-03    0    0
  213    2    8    8    0    0    0.9184584618E+01   -0.9407046318E+01    0.3047892094E+01    0.1351488876E+02    0.7165602446E+00    0    0
  211    1   15   15    0    0    0.6700110912E+01   -0.6438633442E+01    0.2169717312E+01    0.9543303490E+01    0.1395681053E+00    0    0
  111    1   15   15    0    0    0.2484472752E+01   -0.2968411684E+01    0.8781742454E+00    0.3971583843E+01    0.1349640787E+00    0    0
</event>
<event>
   19 9999    1    0.9119999695E+02    0.7565275169E-02    0.1185000000E+00
   11   -1    0    0    0    0    0.0000000000E+00    0.0000000000E+00    0.8000000000E+02    0.8000000000E+02    0.5109988851E-03    0    0
  -11   -1    0    0    0    0    0.0000000000E+00    0.0000000000E+00   -0.8000000000E+02    0.8000000000E+02    0.5109988851E-03    0    0
  -24    2    1    2    0    0    0.2074703932E+01    0.5647835255E+01    0.2828244591E+02    0.8601313782E+02    0.8100716400E+02    0    0
   24    2    1    2    0    0   -0.2074703932E+01   -0.5647835255E+01   -0.2828244591E+02    0.7398686218E+02    0.6810254669E+02    0    0
   15    2    3    3    0    0    0.3601895905E+02    0.2249921560E+01    0.3603389740E+02    0.5102967072E+02    0.1777029991E+01    0    0
  -16    1    3    3    0    0   -0.3394425201E+02    0.3397913694E+01   -0.7751452923E+01    0.3498347092E+02    0.0000000000E+00    0    0
   16    1    4    4    0    0    0.2394804955E+02   -0.5247400761E+01    0.1096842003E+02    0.2685796928E+02    0.0000000000E+00    0    0
  -15    2    4    4    0    0   -0.2602275467E+02   -0.4004343152E+00   -0.3925086594E+02    0.4712889099E+02    0.1777029991E+01    0    0
   16    1    5    5    0    0    0.1636028862E+02    0.1713052392E+01    0.1672719193E+02    0.2346044731E+02    0.2862802648E-03    0    0
 -213    2    5    5    0    0    0.1966008759E+02    0.5369577408E+00    0.1930812645E+02    0.2757123184E+02    0.7495191693E+00    0    0
 -211    1   10   10    0    0    0.5841941357E+01    0.2870911062E+00    0.6147737980E+01    0.8486745834E+01    0.1395680308E+00    0    0
  111    1   10   10    0    0    0.1381814575E+02    0.2498665750E+00    0.1316038799E+02    0.1908448601E+02    0.1349639595E+00    0    0
  -16    1    8    8    0    0   -0.3650948107E+00   -0.8233877271E-01   -0.4760560095E+00    0.6055603027E+00    0.1875031448E-03    0    0
   24    2    8    8    0    0   -0.2565868378E+02   -0.3181113005E+00   -0.3877635574E+02    0.4652518463E+02    0.1586820364E+01    0    0
  211    1   14   14    0    0   -0.5149275780E+01   -0.1000905707E+00   -0.7753311157E+01    0.9309047699E+01    0.1395682395E+00    0    0
  211    1   14   14    0    0   -0.5573317528E+01    0.1457362324E+00   -0.8803867340E+01    0.1042164421E+02    0.1395679563E+00    0    0
 -211    1   14   14    0    0   -0.5169300079E+01   -0.6000758335E-01   -0.7410550594E+01    0.9036647797E+01    0.1395679712E+00    0    0
  111    1   14   14    0    0   -0.7475807190E+01   -0.6222191732E-02   -0.1097614765E+02    0.1328087997E+02    0.1349639446E+00    0    0
  111    1   14   14    0    0   -0.2290981770E+01   -0.2975272238E+00   -0.3832475424E+01    0.4476963520E+01    0.1349638551E+00    0    0
</event>
<event>
   18 9999    1    0.9119999695E+02    0.7565275169E-02    0.1185000000E+00
   11   -1    0    0    0    0    0.0000000000E+00    0.0000000000E+00    0.8000000000E+02    0.8000000000E+02    0.5109988851E-03    0    0
  -11   -1    0    0    0    0    0.0000000000E+00    0.0000000000E+00   -0.8000000000E+02    0.8000000000E+02    0.5109988851E-03    0    0
  -24    2    1    2    0    0   -0.2066918373E+01    0.2165648460E+01   -0.8435875893E+01    0.7945797729E+02    0.7895216370E+02    0    0
   24    2    1    2    0    0    0.2066918373E+01   -0.2165648460E+01    0.8435875893E+01    0.8054202271E+02    0.8004306030E+02    0    0
   15    2    3    3    0    0    0.3116044617E+02    0.2174681473E+02   -0.1390990067E+02    0.4050358582E+02    0.1777029991E+01    0    0
  -16    1    3    3    0    0   -0.3322736359E+02   -0.1958116531E+02    0.5474025249E+01    0.3895439148E+02    0.0000000000E+00    0    0
   16    1    4    4    0    0   -0.4544856548E+01   -0.1084161949E+02    0.4283094406E+02    0.4441493225E+02    0.0000000000E+00    0    0
  -15    2    4    4    0    0    0.6611775398E+01    0.8675971031E+01   -0.3439506912E+02    0.3612709045E+02    0.1777029991E+01    0    0
   16    1    5    5    0    0    0.2137303114E+01    0.1665619373E+01   -0.1344967008E+01    0.3025109768E+01    0.4882812500E-03    0    0
  -24    2    5    5    0    0    0.2902436829E+02    0.2008205032E+02   -0.1256548119E+02    0.3748006821E+02    0.1077775717E+01    0    0
  111    1   10   10    0    0    0.3530795813E+01    0.2490824461E+01   -0.1703209877E+01    0.4646489620E+01    0.1349640191E+00    0    0
  111    1   10   10    0    0    0.9792505264E+01    0.7014461517E+01   -0.4335381031E+01    0.1280271721E+02    0.1349638551E+00    0    0
 -321    1   10   10    0    0    0.1570106792E+02    0.1057676506E+02   -0.6526890278E+01    0.2003086281E+02    0.4936669767E+00    0    0
  -16    1    8    8    0    0    0.1439191699E+01    0.1302332163E+01   -0.6366538525E+01    0.6655836105E+01    0.4443426442E-03    0    0
   24    2    8    8    0    0    0.5172843456E+01    0.7373980045E+01   -0.2802988243E+02    0.2947267532E+02    0.1352895141E+01    0    0
  321    1   15   15    0    0    0.2276763439E+01    0.3601977825E+01   -0.1251304150E+02    0.1322791862E+02    0.4936669171E+00    0    0
  211    1   15   15    0    0    0.2690636873E+01    0.3214017868E+01   -0.1332543755E+02    0.1396983147E+02    0.1395678371E+00    0    0
 -211    1   15   15    0    0    0.2054430544E+00    0.5579838157E+00   -0.2191402435E+01    0.2274923563E+01    0.1395680159E+00    0    0
</event>
<event>
   18 9999    1    0.9119999695E+02    0.7565275169E-02    0.1185000000E+00
   11   -1    0    0    0    0    0.0000000000E+00    0.0000000000E+00    0.8000000000E+02    0.8000000000E+02    0.5109988851E-03    0    0
  -11   -1    0    0    0    0    0.0000000000E+00    0.0000000000E+00   -0.8000000000E+02    0.8000000000E+02    0.5109988851E-03    0    0
  -24    2    1    2    0    0    0.8391091347E+01   -0.6492501736E+01    0.1645880508E+02    0.8247743988E+02    0.8011911774E+02    0    0
   24    2    1    2    0    0   -0.8391911507E+01    0.6491868973E+01   -0.1645820999E+02    0.7751657867E+02    0.7500252533E+02    0    0
   22    1    1    2    0    0    0.9076916613E-03    0.8794358000E-03   -0.3160187043E-02    0.3403541399E-02    0.0000000000E+00    0    0
   22    1    1    2    0    0   -0.8756589523E-04   -0.2466936712E-03    0.2565153409E-02    0.2578475745E-02    0.0000000000E+00    0    0
   15    2    3    3    0    0   -0.3043858147E+02   -0.2239489937E+02    0.1436081696E+02    0.4046516800E+02    0.1777029991E+01    0    0
  -16    1    3    3    0    0    0.3882967377E+02    0.1590239811E+02    0.2097988605E+01    0.4201227570E+02    0.0000000000E+00    0    0
   16    1    4    4    0    0   -0.2598415184E+02    0.5640455246E+01    0.2243152428E+02    0.3478741455E+02    0.0000000000E+00    0    0
  -15    2    4    4    0    0    0.1759224129E+02    0.8514133692E+00   -0.3888973618E+02    0.4272916031E+02    0.1777029991E+01    0    0
   16    1    7    7    0    0   -0.2634562492E+02   -0.1975568962E+02    0.1274688816E+02    0.3531093979E+02    0.3286843712E-03    0    0
 -321    1    7    7    0    0   -0.4094156265E+01   -0.2640092611E+01    0.1614495277E+01    0.5155822754E+01    0.4936670363E+00    0    0
  -16    1   10   10    0    0    0.7932971120E+00   -0.1406417638E+00   -0.2090982914E+01    0.2240828037E+01    0.3967285156E-03    0    0
   24    2   10   10    0    0    0.1679963684E+02    0.9920886159E+00   -0.3680028152E+02    0.4049001312E+02    0.1403011203E+01    0    0
  111    1   14   14    0    0    0.4083094597E+01    0.5707877874E+00   -0.8845265388E+01    0.9759836197E+01    0.1349641830E+00    0    0
  111    1   14   14    0    0    0.6592633128E+00    0.2786659077E-01   -0.1679304719E+01    0.1809332609E+01    0.1349636018E+00    0    0
  111    1   14   14    0    0    0.5939277649E+01    0.2821640968E+00   -0.1367078209E+02    0.1490849209E+02    0.1349640787E+00    0    0
  211    1   14   14    0    0    0.6117999077E+01    0.1112700254E+00   -0.1260492706E+02    0.1401235008E+02    0.1395680159E+00    0    0
</event>
<event>
   19 9999    1    0.9119999695E+02    0.7565275169E-02    0.1185000000E+00
   11   -1    0    0    0    0    0.0000000000E+00    0.0000000000E+00    0.8000000000E+02    0.8000000000E+02    0.5109988851E-03    0    0
  -11   -1    0    0    0    0    0.0000000000E+00    0.0000000000E+00   -0.8000000000E+02    0.8000000000E+02    0.5109988851E-03    0    0
  -24    2    1    2    0    0    0.1405602837E+02   -0.2870340347E+01    0.4557585716E+01    0.7831401062E+02    0.7685376740E+02    0    0
   24    2    1    2    0    0   -0.1405114365E+02    0.2874865532E+01   -0.4496076584E+01    0.8162412262E+02    0.8022831726E+02    0    0
   22    1    1    2    0    0   -0.4885137547E-02   -0.4525238182E-02   -0.6150927022E-01    0.6186867505E-01    0.0000000000E+00    0    0
   15    2    3    3    0    0   -0.7085121632E+01    0.3097769356E+02    0.1754905319E+02    0.3634478760E+02    0.1777029991E+01    0    0
  -16    1    3    3    0    0    0.2114114952E+02   -0.3384803391E+02   -0.1299146652E+02    0.4196922302E+02    0.0000000000E+00    0    0
   16    1    4    4    0    0    0.3365789032E+02    0.1123044968E+01   -0.4610158801E+00    0.3367977524E+02    0.0000000000E+00    0    0
  -15    2    4    4    0    0   -0.4770903397E+02    0.1751820564E+01   -0.4035060883E+01    0.4794434357E+02    0.1777029991E+01    0    0
   16    1    6    6    0    0   -0.3300176263E+00    0.2730891705E+01    0.1383462191E+01    0.3079066277E+01    0.3244063118E-03    0    0
  -24    2    6    6    0    0   -0.6755383015E+01    0.2824802017E+02    0.1616628075E+02    0.3326715088E+02    0.1329963088E+01    0    0
 -211    1   11   11    0    0   -0.3128434658E+01    0.1256029510E+02    0.7623111725E+01    0.1502263069E+02    0.1395678520E+00    0    0
  310    1   11   11    0    0   -0.1960704923E+01    0.8465592384E+01    0.4807952881E+01    0.9943578720E+01    0.4977200925E+00    0    0
  111    1   11   11    0    0   -0.1666243315E+01    0.7222132683E+01    0.3735216379E+01    0.8300941467E+01    0.1349639744E+00    0    0
  -16    1    9    9    0    0   -0.9350007057E+01    0.5415406823E+00   -0.4446228743E+00    0.9376225471E+01    0.4228639591E-03    0    0
   24    2    9    9    0    0   -0.3836090469E+02    0.1210348845E+01   -0.3590596676E+01    0.3857000732E+02    0.1315006018E+01    0    0
  321    1   16   16    0    0   -0.2737268639E+02    0.3953512311E+00   -0.2617517233E+01    0.2750482368E+02    0.4936672151E+00    0    0
  211    1   16   16    0    0   -0.7047300816E+01    0.5038646460E+00   -0.6201642156E+00    0.7093829155E+01    0.1395680159E+00    0    0
 -211    1   16   16    0    0   -0.3940918446E+01    0.3111330569E+00   -0.3529154956E+00    0.3971356392E+01    0.1395680159E+00    0    0
</event>
<event>
   20 9999    1    0.9119999695E+02    0.7565275169E-02    0.1185000000E+00
   11   -1    0    0    0    0    0.0000000000E+00    0.0000000000E+00    0.8000000000E+02    0.8000000000E+02    0.5109988851E-03    0    0
  -11   -1    0    0    0    0    0.0000000000E+00    0.0000000000E+00   -0.8000000000E+02    0.8000000000E+02    0.5109988851E-03    0    0
  -24    2    1    2    0    0   -0.3508635712E+02   -0.1665291977E+02    0.1038344669E+02    0.9211885834E+02    0.8288362885E+02    0    0
   24    2    1    2    0    0    0.3508635712E+02    0.1665291977E+02   -0.1038344669E+02    0.6788114166E+02    0.5469607925E+02    0    0
   15    2    3    3    0    0   -0.5043972397E+02   -0.2157628822E+02   -0.1942818069E+02    0.5822640228E+02    0.1777029991E+01    0    0
  -16    1    3    3    0    0    0.1535336685E+02    0.4923367977E+01    0.2981162834E+02    0.3389245605E+02    0.0000000000E+00    0    0
   16    1    4    4    0    0    0.2872822380E+02   -0.1432758999E+02    0.5296168327E+01    0.3253675079E+02    0.0000000000E+00    0    0
  -15    2    4    4    0    0    0.6358133793E+01    0.3098051071E+02   -0.1567961502E+02    0.3534439087E+02    0.1777029991E+01    0    0
   16    1    5    5    0    0   -0.2179153824E+02   -0.8697264671E+01   -0.7923643112E+01    0.2476484680E+02    0.2114319796E-03    0    0
  -24    2    5    5    0    0   -0.2865017128E+02   -0.1287987328E+02   -0.1150530338E+02    0.3346384811E+02    0.8565468192E+00    0    0
 -211    1   10   10    0    0   -0.8260327339E+01   -0.3693065405E+01   -0.3219860315E+01    0.9605140686E+01    0.1395679414E+00    0    0
  111    1   10   10    0    0   -0.7264557362E+01   -0.3512019873E+01   -0.2766320467E+01    0.8531050682E+01    0.1349639744E+00    0    0
   22    1   10   10    0    0   -0.1312528706E+02   -0.5674787998E+01   -0.5519122124E+01    0.1532765770E+02    0.1726334885E-03    0    0
  -16    1    8    8    0    0    0.2287563562E+01    0.1107638168E+02   -0.5657851696E+01    0.1264636230E+02    0.4250606871E-03    0    0
   24    2    8    8    0    0    0.4070820808E+01    0.1990534782E+02   -0.1002238083E+02    0.2269942093E+02    0.1421676993E+01    0    0
  211    1   15   15    0    0    0.2308889329E+00    0.1503323078E+01   -0.8657559156E+00    0.1755648851E+01    0.1395684928E+00    0    0
  211    1   15   15    0    0    0.6582465172E+00    0.3139051437E+01   -0.1373586655E+01    0.3491869450E+01    0.1395679265E+00    0    0
 -211    1   15   15    0    0    0.4595799744E+00    0.1991440058E+01   -0.9631836414E+00    0.2263680458E+01    0.1395680308E+00    0    0
  111    1   15   15    0    0    0.8636282682E+00    0.4366967201E+01   -0.2631617546E+01    0.5172995567E+01    0.1349641681E+00    0    0
  111    1   15   15    0    0    0.1858476639E+01    0.8904564857E+01   -0.4188235760E+01    0.1001522541E+02    0.1349639297E+00    0    0
</event>
<event>
   20 9999    1    0.9119999695E+02    0.7565275169E-02    0.1185000000E+00
   11   -1    0    0    0    0    0.0000000000E+00    0.0000000000E+00    0.8000000000E+02    0.8000000000E+02    0.5109988851E-03    0    0
  -11   -1    0    0    0    0    0.0000000000E+00    0.0000000000E+00   -0.8000000000E+02    0.8000000000E+02    0.5109988851E-03    0    0
  -24    2    1    2    0    0    0.2223660088E+02    0.1363656807E+02    0.3745916367E+02    0.9223173523E+02    0.8014412689E+02    0    0
   24    2    1    2    0    0   -0.2222340202E+02   -0.1368733120E+02   -0.3750220490E+02    0.6769765472E+02    0.4995332718E+02    0    0
   22    1    1    2    0    0   -0.1286997832E-01    0.5127089843E-01    0.4445570335E-01    0.6906989962E-01    0.0000000000E+00    0    0
   22    1    1    2    0    0   -0.3283546248E-03   -0.5078709219E-03   -0.1414634520E-02    0.1538486336E-02    0.0000000000E+00    0    0
   15    2    3    3    0    0    0.1777113533E+02    0.3246886826E+02    0.5486150742E+02    0.6620410156E+02    0.1777029991E+01    0    0
  -16    1    3    3    0    0    0.4465465546E+01   -0.1883230209E+02   -0.1740234375E+02    0.2602762985E+02    0.0000000000E+00    0    0
   16    1    4    4    0    0   -0.2720210648E+02    0.5506616458E-01   -0.4389923096E+02    0.5164397430E+02    0.0000000000E+00    0    0
  -15    2    4    4    0    0    0.4978704453E+01   -0.1374239731E+02    0.6397025585E+01    0.1605368423E+02    0.1777029991E+01    0    0
   16    1    7    7    0    0    0.5329045296E+01    0.9596096992E+01    0.1658980751E+02    0.1989234924E+02    0.3955530119E-03    0    0
  -24    2    7    7    0    0    0.1244279003E+02    0.2287405205E+02    0.3827386093E+02    0.4631436539E+02    0.1444550276E+01    0    0
 -211    1   12   12    0    0    0.6449855328E+01    0.1147467422E+02    0.1912394333E+02    0.2321666336E+02    0.1395678222E+00    0    0
  310    1   12   12    0    0    0.5338375092E+01    0.1002776146E+02    0.1647406006E+02    0.2001740837E+02    0.4977199733E+00    0    0
  111    1   12   12    0    0    0.6545605063E+00    0.1371617436E+01    0.2675859690E+01    0.3080296040E+01    0.1349642575E+00    0    0
  -16    1   10   10    0    0    0.1958427310E+01   -0.5408186913E+01    0.2603276253E+01    0.6313554287E+01    0.4366787034E-03    0    0
   24    2   10   10    0    0    0.3020472765E+01   -0.8334751129E+01    0.3794001102E+01    0.9740760803E+01    0.1377185702E+01    0    0
  321    1   17   17    0    0    0.8684724569E+00   -0.2296330452E+01    0.7271947861E+00    0.2607661247E+01    0.4936670661E+00    0    0
  211    1   17   17    0    0    0.3740088642E+00   -0.1569366336E+01    0.9385339618E+00    0.1871662021E+01    0.1395679265E+00    0    0
 -211    1   17   17    0    0    0.1777992010E+01   -0.4469055653E+01    0.2128273010E+01    0.5261438847E+01    0.1395679414E+00    0    0
</event>
<event>
   19 9999    1    0.9119999695E+02    0.7565275169E-02    0.1185000000E+00
   11   -1    0    0    0    0    0.0000000000E+00    0.0000000000E+00    0.8000000000E+02    0.8000000000E+02    0.5109988851E-03    0    0
  -11   -1    0    0    0    0    0.0000000000E+00    0.0000000000E+00   -0.8000000000E+02    0.8000000000E+02    0.5109988851E-03    0    0
  -24    2    1    2    0    0    0.6241509438E+01   -0.1496670055E+02    0.3353726959E+02    0.8855431366E+02    0.8033778381E+02    0    0
   24    2    1    2    0    0   -0.6241477966E+01    0.1496669674E+02   -0.3353753281E+02    0.7144542694E+02    0.6096494293E+02    0    0
   22    1    1    2    0    0   -0.3166040915E-04    0.4350873041E-05    0.2626529895E-03    0.2645900822E-03    0.0000000000E+00    0    0
   15    2    3    3    0    0   -0.1285121536E+02    0.2903607368E+02    0.3584560633E+01    0.3200397110E+02    0.1777029991E+01    0    0
  -16    1    3    3    0    0    0.1909272575E+02   -0.4400277328E+02    0.2995270920E+02    0.5655034256E+02    0.0000000000E+00    0    0
   16    1    4    4    0    0    0.2419092369E+02    0.1528709126E+02   -0.2878899193E+02    0.4059189606E+02    0.0000000000E+00    0    0
  -15    2    4    4    0    0   -0.3043240166E+02   -0.3203950524E+00   -0.4748540878E+01    0.3085352707E+02    0.1777029991E+01    0    0
   16    1    6    6    0    0   -0.2449722290E+01    0.5305070400E+01    0.3762805462E+00    0.5855467319E+01    0.2589502255E-03    0    0
  -24    2    6    6    0    0   -0.1040199947E+02    0.2373214531E+02    0.3208421230E+01    0.2614976501E+02    0.1449090481E+01    0    0
  221    1   11   11    0    0   -0.3566467762E+01    0.7746979237E+01    0.1354573607E+01    0.8652828217E+01    0.5488000512E+00    0    0
 -211    1   11   11    0    0   -0.2356158257E+01    0.6007870674E+01    0.4653731287E+00    0.6471633434E+01    0.1395680159E+00    0    0
  111    1   11   11    0    0   -0.4479372978E+01    0.9977295876E+01    0.1388474584E+01    0.1102530289E+02    0.1349640489E+00    0    0
  -16    1    9    9    0    0   -0.4240823269E+01   -0.3633891046E+00   -0.7922837138E+00    0.4329473972E+01    0.3585003724E-03    0    0
20213    2    9    9    0    0   -0.2619277573E+02    0.4298146442E-01   -0.3956444025E+01    0.2652526855E+02    0.1368589044E+01    0    0
  111    1   16   16    0    0   -0.1671246529E+02   -0.4148335755E+00   -0.2673490524E+01    0.1693057442E+02    0.1349642426E+00    0    0
  111    1   16   16    0    0   -0.3221365690E+01    0.1593093574E+00   -0.2009773552E+00    0.3234375238E+01    0.1349640042E+00    0    0
  211    1   16   16    0    0   -0.6258947372E+01    0.2985056639E+00   -0.1081976533E+01    0.6360321045E+01    0.1395680159E+00    0    0
</event>
<event>
   18 9999    1    0.9119999695E+02    0.7565275169E-02    0.1185000000E+00
   11   -1    0    0    0    0    0.0000000000E+00    0.0000000000E+00    0.8000000000E+02    0.8000000000E+02    0.5109988851E-03    0    0
  -11   -1    0    0    0    0    0.0000000000E+00    0.0000000000E+00   -0.8000000000E+02    0.8000000000E+02    0.5109988851E-03    0    0
  -24    2    1    2    0    0    0.1784654236E+02    0.2782896280E+01   -0.7562981129E+01    0.7708055878E+02    0.7455180359E+02    0    0
   24    2    1    2    0    0   -0.1784654236E+02   -0.2782896280E+01    0.7562981129E+01    0.8291944122E+02    0.8057413483E+02    0    0
   15    2    3    3    0    0    0.9523217201E+01   -0.3486465454E+02   -0.1233398438E+02    0.3822984314E+02    0.1777029991E+01    0    0
  -16    1    3    3    0    0    0.8323325157E+01    0.3764755249E+02    0.4771003246E+01    0.3885071945E+02    0.0000000000E+00    0    0
   16    1    4    4    0    0    0.2647210598E+01   -0.3985974884E+02    0.6104933023E+00    0.3995222092E+02    0.0000000000E+00    0    0
  -15    2    4    4    0    0   -0.2049375153E+02    0.3707685089E+02    0.6952487946E+01    0.4296721649E+02    0.1777029991E+01    0    0
   16    1    5    5    0    0    0.1205182195E+01   -0.3591178894E+01   -0.1012457013E+01    0.3920981884E+01    0.1930101134E-03    0    0
  -24    2    5    5    0    0    0.8318409920E+01   -0.3127485085E+02   -0.1132201290E+02    0.3431036758E+02    0.1304260135E+01    0    0
  111    1   10   10    0    0    0.2740184784E+01   -0.1045914650E+02   -0.4124703884E+01    0.1157297516E+02    0.1349642277E+00    0    0
  111    1   10   10    0    0    0.1936668634E+01   -0.7990740776E+01   -0.2956126690E+01    0.8738393784E+01    0.1349641234E+00    0    0
 -321    1   10   10    0    0    0.3641556025E+01   -0.1282496262E+02   -0.4241182327E+01    0.1399899673E+02    0.4936670363E+00    0    0
  -16    1    8    8    0    0   -0.4457125664E+01    0.7078300953E+01    0.1567791104E+01    0.8510363579E+01    0.4048614355E-03    0    0
   24    2    8    8    0    0   -0.1603743362E+02    0.3000000954E+02    0.5384970188E+01    0.3445854568E+02    0.1092493892E+01    0    0
  211    1   15   15    0    0   -0.1118304491E+01    0.2419283390E+01    0.3422140479E+00    0.2690748215E+01    0.1395682395E+00    0    0
  111    1   15   15    0    0   -0.2269500971E+01    0.4622793674E+01    0.9309206009E+00    0.5235044003E+01    0.1349639744E+00    0    0
   22    1   15   15    0    0   -0.1264962769E+02    0.2295793343E+02    0.4111835957E+01    0.2653275299E+02    0.1364787604E-03    0    0
</event>
<event>
   21 9999    1    0.9119999695E+02    0.7565275169E-02    0.1185000000E+00
   11   -1    0    0    0    0    0.0000000000E+00    0.0000000000E+00    0.8000000000E+02    0.8000000000E+02    0.5109988851E-03    0    0
  -11   -1    0    0    0    0    0.0000000000E+00    0.0000000000E+00   -0.8000000000E+02    0.8000000000E+02    0.5109988851E-03    0    0
  -24    2    1    2    0    0    0.1302438927E+02   -0.2508929443E+02   -0.1553489876E+02    0.7236795044E+02    0.6478178406E+02    0    0
   24    2    1    2    0    0   -0.1301485634E+02    0.2508458138E+02    0.1563950157E+02    0.8752650452E+02    0.8134907532E+02    0    0
   22    1    1    2    0    0   -0.9176775813E-02    0.5560596939E-02   -0.6120760366E-01    0.6214100122E-01    0.0000000000E+00    0    0
   22    1    1    2    0    0   -0.3569709952E-03   -0.8481750265E-03   -0.4292199388E-01    0.4293185845E-01    0.0000000000E+00    0    0
   22    1    1    2    0    0    0.1333508806E-06    0.9128773115E-07   -0.4730557557E-03    0.4730557848E-03    0.0000000000E+00    0    0
   15    2    3    3    0    0   -0.1280684471E+02   -0.2065363884E+01    0.1926454926E+02    0.2329295349E+02    0.1777029991E+01    0    0
  -16    1    3    3    0    0    0.2583123398E+02   -0.2302392960E+02   -0.3479944611E+02    0.4907500076E+02    0.0000000000E+00    0    0
   16    1    4    4    0    0   -0.3431288910E+02    0.2849117279E+02    0.3637658310E+02    0.5755325699E+02    0.0000000000E+00    0    0
  -15    2    4    4    0    0    0.2129803276E+02   -0.3406590939E+01   -0.2073708344E+02    0.2997324753E+02    0.1777029991E+01    0    0
   16    1    8    8    0    0   -0.2831021547E+01   -0.3544414043E+00    0.5074606895E+01    0.5821679115E+01    0.2441406250E-03    0    0
  -24    2    8    8    0    0   -0.9976326942E+01   -0.1711003900E+01    0.1419069958E+02    0.1747219086E+02    0.1202851415E+01    0    0
 -211    1   13   13    0    0   -0.2548584461E+01   -0.3587278128E+00    0.3279094934E+01    0.4170840740E+01    0.1395680606E+00    0    0
  310    1   13   13    0    0   -0.4113530159E+01   -0.8169686198E+00    0.5553291798E+01    0.6976771832E+01    0.4977200031E+00    0    0
  111    1   13   13    0    0   -0.3314212322E+01   -0.5353072882E+00    0.5358312607E+01    0.6324577808E+01    0.1349640787E+00    0    0
  -16    1   11   11    0    0    0.5452153087E-01   -0.3246688098E-01   -0.8815287612E-02    0.6406588852E-01    0.1736420672E-03    0    0
   24    2   11   11    0    0    0.2124435043E+02   -0.3374258280E+01   -0.2072908401E+02    0.2991036034E+02    0.1492224693E+01    0    0
  321    1   18   18    0    0    0.4684844017E+01   -0.7202728391E+00   -0.4812854767E+01    0.6773022652E+01    0.4936669469E+00    0    0
  211    1   18   18    0    0    0.5070502758E+01   -0.5647320747E+00   -0.4982400417E+01    0.7132511139E+01    0.1395680010E+00    0    0
 -321    1   18   18    0    0    0.1148900223E+02   -0.2089253187E+01   -0.1093382740E+02    0.1600482559E+02    0.4936670065E+00    0    0
</event>
<event>
   20 9999    1    0.9119999695E+02    0.7565275169E-02    0.1185000000E+00
   11   -1    0    0    0    0    0.0000000000E+00    0.0000000000E+00    0.8000000000E+02    0.8000000000E+02    0.5109988851E-03    0    0
  -11   -1    0    0    0    0    0.0000000000E+00    0.0000000000E+00   -0.8000000000E+02    0.8000000000E+02    0.5109988851E-03    0    0
  -24    2    1    2    0    0   -0.2852330208E+02    0.7672614455E+00    0.5772209644E+01    0.8439229584E+02    0.7921221161E+02    0    0
   24    2    1    2    0    0    0.2852330208E+02   -0.7672614455E+00   -0.5772209644E+01    0.7560770416E+02    0.6977849579E+02    0    0
   15    2    3    3    0    0   -0.5169193649E+02   -0.5787578106E+01    0.2075742912E+02    0.5603196716E+02    0.1777029991E+01    0    0
  -16    1    3    3    0    0    0.2316863632E+02    0.6554839611E+01   -0.1498521996E+02    0.2836033058E+02    0.0000000000E+00    0    0
   16    1    4    4    0    0   -0.2095947838E+02    0.4693344593E+01    0.9526699066E+01    0.2349649239E+02    0.0000000000E+00    0    0
  -15    2    4    4    0    0    0.4948278046E+02   -0.5460606098E+01   -0.1529890919E+02    0.5211120987E+02    0.1777029991E+01    0    0
   16    1    5    5    0    0   -0.4932054520E+01   -0.5798084140E+00    0.1738641500E+01    0.5261579037E+01    0.8631674427E-04    0    0
  -24    2    5    5    0    0   -0.4676191330E+02   -0.5207997322E+01    0.1901960373E+02    0.5077259064E+02    0.1520051837E+01    0    0
 -211    1   10   10    0    0   -0.2033508301E+01   -0.2966722846E+00    0.6981480122E+00    0.2174870253E+01    0.1395679414E+00    0    0
 -211    1   10   10    0    0   -0.1249775124E+02   -0.1561995387E+01    0.5386779785E+01    0.1369928741E+02    0.1395678520E+00    0    0
 -211    1   10   10    0    0   -0.2623544216E+01   -0.2080220431E+00    0.1011667609E+01    0.2822978497E+01    0.1395679712E+00    0    0
  211    1   10   10    0    0   -0.2162494278E+02   -0.2182260036E+01    0.8825727463E+01    0.2345875931E+02    0.1395678967E+00    0    0
  211    1   10   10    0    0   -0.7982168198E+01   -0.9590476155E+00    0.3097280264E+01    0.8616693497E+01    0.1395680010E+00    0    0
  -16    1    8    8    0    0    0.2871039581E+02   -0.3001533270E+01   -0.8555271149E+01    0.3010795021E+02    0.4567452997E-03    0    0
20213    2    8    8    0    0    0.2077433395E+02   -0.2459287882E+01   -0.6744240761E+01    0.2200531197E+02    0.1062048197E+01    0    0
  211    1   17   17    0    0    0.8932933807E+01   -0.1370085239E+01   -0.2922820330E+01    0.9499305725E+01    0.1395679563E+00    0    0
  211    1   17   17    0    0    0.3605467319E+01   -0.4677546620E+00   -0.1393214345E+01    0.3895987034E+01    0.1395680606E+00    0    0
 -211    1   17   17    0    0    0.8235934258E+01   -0.6214480400E+00   -0.2428206205E+01    0.8610021591E+01    0.1395679712E+00    0    0
</event>
<event>
   18 9999    1    0.9119999695E+02    0.7565275169E-02    0.1185000000E+00
   11   -1    0    0    0    0    0.0000000000E+00    0.0000000000E+00    0.8000000000E+02    0.8000000000E+02    0.5109988851E-03    0    0
  -11   -1    0    0    0    0    0.0000000000E+00    0.0000000000E+00   -0.8000000000E+02    0.8000000000E+02    0.5109988851E-03    0    0
  -24    2    1    2    0    0    0.7923759460E+01    0.1506677532E+02   -0.1423201656E+02    0.7621831512E+02    0.7291698456E+02    0    0
   24    2    1    2    0    0   -0.7923759460E+01   -0.1506677532E+02    0.1423201656E+02    0.8378168488E+02    0.8079002380E+02    0    0
   15    2    3    3    0    0    0.1415167618E+02    0.3561410904E+02    0.1392178345E+02    0.4081186676E+02    0.1777029991E+01    0    0
  -16    1    3    3    0    0   -0.6227917194E+01   -0.2054733276E+02   -0.2815380096E+02    0.3540644455E+02    0.0000000000E+00    0    0
   16    1    4    4    0    0    0.2683102417E+02   -0.2748210716E+02   -0.9884084702E+01    0.3965936279E+02    0.0000000000E+00    0    0
  -15    2    4    4    0    0   -0.3475478363E+02    0.1241533184E+02    0.2411610031E+02    0.4412232590E+02    0.1777029991E+01    0    0
   16    1    5    5    0    0    0.1661279678E+01    0.4104232311E+01    0.1335005403E+01    0.4624587536E+01    0.3860202269E-03    0    0
  -24    2    5    5    0    0    0.1249095440E+02    0.3151128006E+02    0.1258732700E+02    0.3618888855E+02    0.1486661196E+01    0    0
  130    1   10   10    0    0    0.3093710899E+01    0.8214352608E+01    0.3494959354E+01    0.9460925102E+01    0.4977202415E+00    0    0
 -211    1   10   10    0    0    0.1494039297E+01    0.3492522955E+01    0.1210821867E+01    0.3989415646E+01    0.1395681351E+00    0    0
  310    1   10   10    0    0    0.7903202057E+01    0.1980439758E+02    0.7881543636E+01    0.2273854065E+02    0.4977199733E+00    0    0
  -16    1    8    8    0    0   -0.1306316733E+01    0.2631047070E+00    0.8966199756E+00    0.1606117964E+01    0.2997876436E-03    0    0
   24    2    8    8    0    0   -0.3344983292E+02    0.1215271568E+02    0.2322043037E+02    0.4251794434E+02    0.1416774273E+01    0    0
  321    1   15   15    0    0   -0.1487749386E+02    0.5499881744E+01    0.1018347645E+02    0.1885564613E+02    0.4936670065E+00    0    0
  211    1   15   15    0    0   -0.2926456690E+01    0.1216509461E+01    0.1924687982E+01    0.3710518360E+01    0.1395679414E+00    0    0
 -321    1   15   15    0    0   -0.1564588642E+02    0.5436325550E+01    0.1111226749E+02    0.1995178223E+02    0.4936670065E+00    0    0
</event>
<event>
   15 9999    1    0.9119999695E+02    0.7565275169E-02    0.1185000000E+00
   11   -1    0    0    0    0    0.0000000000E+00    0.0000000000E+00    0.8000000000E+02    0.8000000000E+02    0.5109988851E-03    0    0
  -11   -1    0    0    0    0    0.0000000000E+00    0.0000000000E+00   -0.8000000000E+02    0.8000000000E+02    0.5109988851E-03    0    0
  -24    2    1    2    0    0    0.5907627583E+01    0.2658191490E+02    0.2023008537E+02    0.7359156799E+02    0.6530669403E+02    0    0
   24    2    1    2    0    0   -0.5907627583E+01   -0.2658191490E+02   -0.2023008537E+02    0.8640843201E+02    0.7947114563E+02    0    0
   15    2    3    3    0    0   -0.2546241188E+02   -0.4417836368E+00    0.1959555244E+02    0.3218187714E+02    0.1777029991E+01    0    0
  -16    1    3    3    0    0    0.3137004089E+02    0.2702369881E+02    0.6345328689E+00    0.4140969086E+02    0.0000000000E+00    0    0
   16    1    4    4    0    0    0.6854556561E+01   -0.4047840500E+02    0.1715472984E+02    0.4449461746E+02    0.0000000000E+00    0    0
  -15    2    4    4    0    0   -0.1276218414E+02    0.1389649010E+02   -0.3738481522E+02    0.4191381836E+02    0.1777029991E+01    0    0
   16    1    5    5    0    0   -0.1920456123E+02    0.1774087735E-01    0.1413309097E+02    0.2384449005E+02    0.2441406250E-03    0    0
   13    1    5    5    0    0   -0.1865461349E+01    0.7264932245E-01    0.1765443802E+01    0.2571610212E+01    0.1056589931E+00    0    0
  -14    1    5    5    0    0   -0.4393392086E+01   -0.5321912169E+00    0.3697790623E+01    0.5767042637E+01    0.9650505672E-04    0    0
  -16    1    8    8    0    0   -0.2167972803E+01    0.3112537861E+01   -0.6870355606E+01    0.7847916126E+01    0.1220703125E-03    0    0
  213    2    8    8    0    0   -0.1059471321E+02    0.1078449917E+02   -0.3051593018E+02    0.3406755066E+02    0.9069530368E+00    0    0
  211    1   13   13    0    0   -0.4704650879E+01    0.5159139156E+01   -0.1331475449E+02    0.1503504658E+02    0.1395681202E+00    0    0
  111    1   13   13    0    0   -0.5890062332E+01    0.5625359535E+01   -0.1720117569E+02    0.1903250313E+02    0.1349641681E+00    0    0
</event>
<event>
   21 9999    1    0.9119999695E+02    0.7565275169E-02    0.1185000000E+00
   11   -1    0    0    0    0    0.0000000000E+00    0.0000000000E+00    0.8000000000E+02    0.8000000000E+02    0.5109988851E-03    0    0
  -11   -1    0    0    0    0    0.0000000000E+00    0.0000000000E+00   -0.8000000000E+02    0.8000000000E+02    0.5109988851E-03    0    0
  -24    2    1    2    0    0    0.6108324528E+01   -0.4440259457E+01    0.5989986801E+02    0.9388285065E+02    0.7189553833E+02    0    0
   24    2    1    2    0    0   -0.6108298302E+01    0.4440257549E+01   -0.6092704010E+02    0.6508997345E+02    0.2162344170E+02    0    0
   22    1    1    2    0    0   -0.2660422251E-04    0.2577216492E-05    0.9757292867E+00    0.9757292867E+00    0.0000000000E+00    0    0
   22    1    1    2    0    0    0.7567462035E-06   -0.4237815574E-06    0.5144607276E-01    0.5144607276E-01    0.0000000000E+00    0    0
   15    2    3    3    0    0    0.1507172775E+02   -0.2039270592E+02    0.6893721008E+02    0.7347459412E+02    0.1777029991E+01    0    0
  -16    1    3    3    0    0   -0.8963403702E+01    0.1595244694E+02   -0.9037344933E+01    0.2040825272E+02    0.0000000000E+00    0    0
   16    1    4    4    0    0   -0.4129732609E+01   -0.7935885429E+01   -0.3646887589E+02    0.3755012512E+02    0.0000000000E+00    0    0
  -15    2    4    4    0    0   -0.1978565812E+01    0.1237614346E+02   -0.2445816612E+02    0.2753985023E+02    0.1777029991E+01    0    0
   16    1    7    7    0    0    0.5474003315E+01   -0.7190338135E+01    0.2403496552E+02    0.2567771912E+02    0.5995752872E-03    0    0
  -24    2    7    7    0    0    0.9598317146E+01   -0.1320317078E+02    0.4490495682E+02    0.4779976654E+02    0.1382474899E+01    0    0
 -321    1   12   12    0    0    0.4549880028E+01   -0.5888676167E+01    0.2054802322E+02    0.2185961723E+02    0.4936670661E+00    0    0
 -211    1   12   12    0    0    0.4916816711E+01   -0.7023823738E+01    0.2335333061E+02    0.2487783623E+02    0.1395682245E+00    0    0
  211    1   12   12    0    0    0.1316205114E+00   -0.2906703055E+00    0.1003604293E+01    0.1062315345E+01    0.1395680904E+00    0    0
  -16    1   10   10    0    0   -0.7752344478E-02    0.2945285797E+01   -0.5050521374E+01    0.5846582890E+01    0.1726334885E-03    0    0
   24    2   10   10    0    0   -0.1970891356E+01    0.9431344032E+01   -0.1940860748E+02    0.2169435120E+02    0.1056487799E+01    0    0
  211    1   17   17    0    0   -0.1845505089E+00    0.1203334928E+01   -0.2636233807E+01    0.2907108784E+01    0.1395680457E+00    0    0
  211    1   17   17    0    0   -0.4273634255E+00    0.1824721098E+01   -0.3698136091E+01    0.4148244858E+01    0.1395678073E+00    0    0
 -211    1   17   17    0    0   -0.7792690396E+00    0.2833978891E+01   -0.6490748882E+01    0.7126569748E+01    0.1395681798E+00    0    0
  111    1   17   17    0    0   -0.5797080398E+00    0.3569308281E+01   -0.6583485603E+01    0.7512424469E+01    0.1349640340E+00    0    0
</event>
<event>
   16 9999    1    0.9119999695E+02    0.7565275169E-02    0.1185000000E+00
   11   -1    0    0    0    0    0.0000000000E+00    0.0000000000E+00    0.8000000000E+02    0.8000000000E+02    0.5109988851E-03    0    0
  -11   -1    0    0    0    0    0.0000000000E+00    0.0000000000E+00   -0.8000000000E+02    0.8000000000E+02    0.5109988851E-03    0    0
  -24    2    1    2    0    0   -0.3303315118E-01   -0.1113300037E+02    0.2871680558E+00    0.7887802124E+02    0.7808786774E+02    0    0
   24    2    1    2    0    0    0.3290052712E-01    0.1113294506E+02   -0.1281899333E+01    0.8012725067E+02    0.7933970642E+02    0    0
   22    1    1    2    0    0    0.1326224447E-03    0.5566660184E-04    0.9947312474E+00    0.9947312474E+00    0.0000000000E+00    0    0
   15    2    3    3    0    0   -0.3776306152E+02    0.4177886486E+01    0.2349926233E+01    0.3810752487E+02    0.1777029991E+01    0    0
  -16    1    3    3    0    0    0.3773002625E+02   -0.1531088734E+02   -0.2062758207E+01    0.4077049637E+02    0.0000000000E+00    0    0
   16    1    4    4    0    0   -0.2673251629E+01   -0.1353467846E+02    0.3415088272E+02    0.3683227539E+02    0.0000000000E+00    0    0
  -15    2    4    4    0    0    0.2706151962E+01    0.2466762352E+02   -0.3543278122E+02    0.4329497147E+02    0.1777029991E+01    0    0
   16    1    6    6    0    0   -0.4565277100E+01    0.8580110669E+00    0.3035286665E+00    0.4655111790E+01    0.4119696387E-03    0    0
  -24    2    6    6    0    0   -0.3319927216E+02    0.3320039988E+01    0.2046490192E+01    0.3345391464E+02    0.1327400088E+01    0    0
 -321    1   11   11    0    0   -0.1363084030E+02    0.1549175262E+01    0.6734601855E+00    0.1374398041E+02    0.4936669469E+00    0    0
  111    1   11   11    0    0   -0.7657113075E+01    0.5517780185E+00    0.5487275720E+00    0.7697737217E+01    0.1349643171E+00    0    0
  310    1   11   11    0    0   -0.1191131592E+02    0.1219086647E+01    0.8243022561E+00    0.1201219463E+02    0.4977200031E+00    0    0
  -16    1    9    9    0    0    0.2144768238E+01    0.2094445419E+02   -0.2925514221E+02    0.3604349518E+02    0.3229676804E-03    0    0
  321    1    9    9    0    0    0.5614905357E+00    0.3724141121E+01   -0.6179035664E+01    0.7253184795E+01    0.4936670065E+00    0    0
</event>
<event>
   21 9999    1    0.9119999695E+02    0.7565275169E-02    0.1185000000E+00
   11   -1    0    0    0    0    0.0000000000E+00    0.0000000000E+00    0.8000000000E+02    0.8000000000E+02    0.5109988851E-03    0    0
  -11   -1    0    0    0    0    0.0000000000E+00    0.0000000000E+00   -0.8000000000E+02    0.8000000000E+02    0.5109988851E-03    0    0
  -24    2    1    2    0    0    0.1388093185E+02    0.1360946083E+02    0.1192981052E+02    0.8315507507E+02    0.7996592712E+02    0    0
   24    2    1    2    0    0   -0.1388086224E+02   -0.1360987282E+02   -0.1195254230E+02    0.7682218933E+02    0.7335446930E+02    0    0
   22    1    1    2    0    0   -0.7872807328E-04    0.4097470373E-03    0.2215406857E-01    0.2215799689E-01    0.0000000000E+00    0    0
   22    1    1    2    0    0    0.9055481314E-05    0.1667650054E-05    0.5770893767E-03    0.5771628348E-03    0.0000000000E+00    0    0
   15    2    3    3    0    0   -0.6299400330E+01    0.1060893917E+02    0.4367498016E+02    0.4541909027E+02    0.1777029991E+01    0    0
  -16    1    3    3    0    0    0.2018033218E+02    0.3000522375E+01   -0.3174517059E+02    0.3773598862E+02    0.0000000000E+00    0    0
   16    1    4    4    0    0    0.8565252304E+01   -0.3425616074E+02    0.1274281216E+02    0.3753967667E+02    0.0000000000E+00    0    0
  -15    2    4    4    0    0   -0.2244611359E+02    0.2064628792E+02   -0.2469535446E+02    0.3928250885E+02    0.1777029991E+01    0    0
   16    1    7    7    0    0   -0.1783596039E+01    0.2339682102E+01    0.1058785629E+02    0.1098899555E+02    0.5917578237E-03    0    0
  -24    2    7    7    0    0   -0.4516052246E+01    0.8269674301E+01    0.3308884430E+02    0.3443188095E+02    0.1378673196E+01    0    0
  111    1   12   12    0    0   -0.1968326807E+01    0.3152632713E+01    0.1216962051E+02    0.1272522163E+02    0.1349633485E+00    0    0
  111    1   12   12    0    0   -0.1767872453E+01    0.3172561646E+01    0.1262552547E+02    0.1313821220E+02    0.1349641085E+00    0    0
 -321    1   12   12    0    0   -0.7798531055E+00    0.1944480300E+01    0.8293699265E+01    0.8568449974E+01    0.4936669767E+00    0    0
  -16    1   10   10    0    0   -0.1048015213E+02    0.9529871941E+01   -0.1131448936E+02    0.1812924957E+02    0.3244063118E-03    0    0
   24    2   10   10    0    0   -0.1196684551E+02    0.1111722851E+02   -0.1338183689E+02    0.2115480614E+02    0.1286115527E+01    0    0
  111    1   17   17    0    0   -0.1203140736E+01    0.1402053952E+01   -0.1365997076E+01    0.2301622391E+01    0.1349632740E+00    0    0
  111    1   17   17    0    0   -0.2806667566E+01    0.2555834532E+01   -0.2892883539E+01    0.4774585247E+01    0.1349641532E+00    0    0
  111    1   17   17    0    0   -0.8244935274E+00    0.5796953440E+00   -0.8079622388E+00    0.1298789620E+01    0.1349639446E+00    0    0
  211    1   17   17    0    0   -0.7132543564E+01    0.6579644680E+01   -0.8314993858E+01    0.1277980900E+02    0.1395679265E+00    0    0
</event>
<event>
   20 9999    1    0.9119999695E+02    0.7565275169E-02    0.1185000000E+00
   11   -1    0    0    0    0    0.0000000000E+00    0.0000000000E+00    0.8000000000E+02    0.8000000000E+02    0.5109988851E-03    0    0
  -11   -1    0    0    0    0    0.0000000000E+00    0.0000000000E+00   -0.8000000000E+02    0.8000000000E+02    0.5109988851E-03    0    0
  -24    2    1    2    0    0   -0.1299486399E+01    0.1162605166E+01   -0.4124911785E+01    0.7915693665E+02    0.7903015900E+02    0    0
   24    2    1    2    0    0    0.1299498558E+01   -0.1162591577E+01    0.4149783134E+01    0.8081819153E+02    0.8069274139E+02    0    0
   22    1    1    2    0    0   -0.1220765716E-04   -0.1365085882E-04   -0.2487121150E-01    0.2487121895E-01    0.0000000000E+00    0    0
   15    2    3    3    0    0   -0.1974317169E+02   -0.2659137535E+02   -0.2346457291E+02    0.4062804794E+02    0.1777029991E+01    0    0
  -16    1    3    3    0    0    0.1844368553E+02    0.2775398064E+02    0.1933966064E+02    0.3852889252E+02    0.0000000000E+00    0    0
   16    1    4    4    0    0    0.1655583763E+02   -0.3196400166E+01    0.3910379791E+02    0.4258426285E+02    0.0000000000E+00    0    0
  -15    2    4    4    0    0   -0.1525633907E+02    0.2033808708E+01   -0.3495401382E+02    0.3823392487E+02    0.1777029991E+01    0    0
   16    1    6    6    0    0   -0.9711540341E+00   -0.1555428386E+01   -0.1056487441E+01    0.2116285324E+01    0.1726334885E-03    0    0
  -24    2    6    6    0    0   -0.1877279472E+02   -0.2503699493E+02   -0.2240900993E+02    0.3851335907E+02    0.1358785748E+01    0    0
 -211    1   11   11    0    0   -0.9577168465E+01   -0.1342370510E+02   -0.1205590057E+02    0.2042748642E+02    0.1395679861E+00    0    0
  310    1   11   11    0    0   -0.5758190632E+01   -0.7364161968E+01   -0.6437372684E+01    0.1136112404E+02    0.4977200329E+00    0    0
  111    1   11   11    0    0   -0.3437433481E+01   -0.4249122620E+01   -0.3915732145E+01    0.6724742889E+01    0.1349640042E+00    0    0
  -16    1    9    9    0    0   -0.7688625813E+01    0.8661051989E+00   -0.1748876762E+02    0.1912386131E+02    0.4162741825E-03    0    0
   24    2    9    9    0    0   -0.7568313122E+01    0.1167783499E+01   -0.1746661949E+02    0.1911156845E+02    0.1235366225E+01    0    0
  211    1   16   16    0    0   -0.2151550531E+01    0.9353234619E-01   -0.4621767044E+01    0.5100796700E+01    0.1395682693E+00    0    0
  211    1   16   16    0    0   -0.1560531735E+01    0.4679557681E+00   -0.3922989845E+01    0.4250125885E+01    0.1395684332E+00    0    0
 -211    1   16   16    0    0   -0.2755958438E+00    0.8583406359E-01   -0.1009150624E+01    0.1058860183E+01    0.1395682395E+00    0    0
  111    1   16   16    0    0   -0.3580634832E+01    0.5204612613E+00   -0.7912712097E+01    0.8701784134E+01    0.1349641383E+00    0    0
</event>
<event>
   17 9999    1    0.9119999695E+02    0.7565275169E-02    0.1185000000E+00
   11   -1    0    0    0    0    0.0000000000E+00    0.0000000000E+00    0.8000000000E+02    0.8000000000E+02    0.5109988851E-03    0    0
  -11   -1    0    0    0    0    0.0000000000E+00    0.0000000000E+00   -0.8000000000E+02    0.8000000000E+02    0.5109988851E-03    0    0
  -24    2    1    2    0    0   -0.1573757076E+02   -0.1222876191E+01   -0.5639004230E+01    0.7645462036E+02    0.7459452820E+02    0    0
   24    2    1    2    0    0    0.1573757076E+02    0.1222876191E+01    0.5639004230E+01    0.8354537964E+02    0.8184660339E+02    0    0
   15    2    3    3    0    0   -0.3029660225E+02    0.2644668007E+02    0.1002445412E+02    0.4148443604E+02    0.1777029991E+01    0    0
  -16    1    3    3    0    0    0.1455903053E+02   -0.2766955566E+02   -0.1566345882E+02    0.3497018051E+02    0.0000000000E+00    0    0
   16    1    4    4    0    0   -0.3000692368E+02   -0.1493733788E+02    0.9514225006E+01    0.3484336472E+02    0.0000000000E+00    0    0
  -15    2    4    4    0    0    0.4574449539E+02    0.1616021347E+02   -0.3875221014E+01    0.4870201874E+02    0.1777029991E+01    0    0
   16    1    5    5    0    0   -0.1670956993E+02    0.1367084217E+02    0.5441387177E+01    0.2226455307E+02    0.1671516657E-03    0    0
 -213    2    5    5    0    0   -0.1358822441E+02    0.1277687836E+02    0.4583462238E+01    0.1922151566E+02    0.7550358772E+00    0    0
 -211    1   10   10    0    0   -0.7204545498E+01    0.7034008980E+01    0.2197441816E+01    0.1030684185E+02    0.1395683885E+00    0    0
  111    1   10   10    0    0   -0.5679529667E+01    0.5063961983E+01    0.2153870344E+01    0.7909370899E+01    0.1349642873E+00    0    0
   22    1   10   10    0    0   -0.7041491866E+00    0.6789072752E+00    0.2321499437E+00    0.1005303383E+01    0.0000000000E+00    0    0
  -16    1    8    8    0    0    0.2258567238E+02    0.7320588589E+01   -0.1730925918E+01    0.2380545425E+02    0.1977765060E-03    0    0
  323    2    8    8    0    0    0.2316062546E+02    0.8840261459E+01   -0.2144447803E+01    0.2489848137E+02    0.8780123591E+00    0    0
  111    1   15   15    0    0    0.3749604225E+01    0.1290004969E+01   -0.5226441622E+00    0.4001876354E+01    0.1349640787E+00    0    0
  321    1   15   15    0    0    0.1941101837E+02    0.7550256252E+01   -0.1621803284E+01    0.2089660263E+02    0.4936670065E+00    0    0
</event>
<event>
   16 9999    1    0.9119999695E+02    0.7565275169E-02    0.1185000000E+00
   11   -1    0    0    0    0    0.0000000000E+00    0.0000000000E+00    0.8000000000E+02    0.8000000000E+02    0.5109988851E-03    0    0
  -11   -1    0    0    0    0    0.0000000000E+00    0.0000000000E+00   -0.8000000000E+02    0.8000000000E+02    0.5109988851E-03    0    0
  -24    2    1    2    0    0   -0.7391037345E+00   -0.8677884102E+01    0.1381627083E+02    0.8067536163E+02    0.7900489044E+02    0    0
   24    2    1    2    0    0    0.7391037345E+00    0.8677884102E+01   -0.1381627083E+02    0.7932463837E+02    0.7762510681E+02    0    0
   15    2    3    3    0    0   -0.2810810471E+02   -0.2674821854E+02    0.2480547523E+02    0.4608689880E+02    0.1777029991E+01    0    0
  -16    1    3    3    0    0    0.2736900139E+02    0.1807033348E+02   -0.1098920536E+02    0.3458846283E+02    0.0000000000E+00    0    0
   16    1    4    4    0    0   -0.1733844757E+02   -0.3036874962E+02   -0.4437166691E+01    0.3525012207E+02    0.0000000000E+00    0    0
  -15    2    4    4    0    0    0.1807755089E+02    0.3904663467E+02   -0.9379103661E+01    0.4407451630E+02    0.1777029991E+01    0    0
   16    1    5    5    0    0   -0.6577885151E+00   -0.5169197321E+00    0.4690604210E+00    0.9591190815E+00    0.1759729348E-03    0    0
  -24    2    5    5    0    0   -0.2745142365E+02   -0.2623235321E+02    0.2433739281E+02    0.4512959671E+02    0.1629321933E+01    0    0
 -321    1   10   10    0    0   -0.1146380424E+02   -0.1105720139E+02    0.1078854561E+02    0.1924361992E+02    0.4936671853E+00    0    0
  111    1   10   10    0    0   -0.4761068344E+01   -0.4769601345E+01    0.4018474102E+01    0.7847497463E+01    0.1349628866E+00    0    0
  130    1   10   10    0    0   -0.1122655392E+02   -0.1040555191E+02    0.9530374527E+01    0.1803848076E+02    0.4977199435E+00    0    0
  -16    1    8    8    0    0    0.1381965065E+02    0.3063953590E+02   -0.6664398193E+01    0.3426628113E+02    0.1726334885E-03    0    0
  211    1    8    8    0    0    0.4226692677E+01    0.8334798813E+01   -0.2690514088E+01    0.9725855827E+01    0.1395680606E+00    0    0
   22    1    8    8    0    0    0.3120812401E-01    0.7229918242E-01   -0.2419119328E-01    0.8237919956E-01    0.0000000000E+00    0    0
</event>
<event>
   19 9999    1    0.9119999695E+02    0.7565275169E-02    0.1185000000E+00
   11   -1    0    0    0    0    0.0000000000E+00    0.0000000000E+00    0.8000000000E+02    0.8000000000E+02    0.5109988851E-03    0    0
  -11   -1    0    0    0    0    0.0000000000E+00    0.0000000000E+00   -0.8000000000E+02    0.8000000000E+02    0.5109988851E-03    0    0
  -24    2    1    2    0    0    0.5555540085E+01    0.1437161922E+02    0.1166844749E+02    0.8189486694E+02    0.7958145905E+02    0    0
   24    2    1    2    0    0   -0.5555540562E+01   -0.1437162113E+02   -0.1166494751E+02    0.7810163116E+02    0.7567288971E+02    0    0
   22    1    1    2    0    0    0.3870201510E-06    0.1911919753E-05   -0.3499684390E-02    0.3499685088E-02    0.0000000000E+00    0    0
   15    2    3    3    0    0   -0.3047117233E+02    0.2360853577E+02    0.2046220970E+02    0.4367739868E+02    0.1777029991E+01    0    0
  -16    1    3    3    0    0    0.3602671051E+02   -0.9236916542E+01   -0.8793762207E+01    0.3821746826E+02    0.0000000000E+00    0    0
   16    1    4    4    0    0   -0.1626803207E+02    0.2295788383E+02   -0.2434684372E+02    0.3720862961E+02    0.0000000000E+00    0    0
  -15    2    4    4    0    0    0.1071249199E+02   -0.3732950592E+02    0.1268189526E+02    0.4089300537E+02    0.1777029991E+01    0    0
   16    1    6    6    0    0   -0.5358086824E+00    0.5212690830E+00    0.4906919897E+00    0.8941986561E+00    0.4184359568E-03    0    0
  -24    2    6    6    0    0   -0.2993656349E+02    0.2308819580E+02    0.1997232246E+02    0.4278491974E+02    0.1546943784E+01    0    0
 -321    1   11   11    0    0   -0.1650897217E+02    0.1237460995E+02    0.1109482574E+02    0.2343109131E+02    0.4936670959E+00    0    0
 -211    1   11   11    0    0   -0.4184843063E+01    0.3273750782E+01    0.2485337734E+01    0.5867430210E+01    0.1395680904E+00    0    0
  321    1   11   11    0    0   -0.9242748260E+01    0.7439836502E+01    0.6392160892E+01    0.1348640060E+02    0.4936669469E+00    0    0
  -16    1    9    9    0    0    0.4143920898E+01   -0.1473414135E+02    0.4701890945E+01    0.1601170731E+02    0.4139605735E-03    0    0
   24    2    9    9    0    0    0.6568992615E+01   -0.2259683228E+02    0.7980503559E+01    0.2488290596E+02    0.1304615259E+01    0    0
  321    1   16   16    0    0    0.1761533737E+01   -0.6119298935E+01    0.2233418703E+01    0.6766142845E+01    0.4936670363E+00    0    0
  211    1   16   16    0    0    0.1351423025E+01   -0.4327781677E+01    0.1215539098E+01    0.4696067810E+01    0.1395680457E+00    0    0
 -211    1   16   16    0    0    0.3456036329E+01   -0.1214975357E+02    0.4531545639E+01    0.1342069626E+02    0.1395681202E+00    0    0
</event>
<event>
   20 9999    1    0.9119999695E+02    0.7565275169E-02    0.1185000000E+00
   11   -1    0    0    0    0    0.0000000000E+00    0.0000000000E+00    0.8000000000E+02    0.8000000000E+02    0.5109988851E-03    0    0
  -11   -1    0    0    0    0    0.0000000000E+00    0.0000000000E+00   -0.8000000000E+02    0.8000000000E+02    0.5109988851E-03    0    0
  -24    2    1    2    0    0   -0.1008265686E+02   -0.1353646564E+02    0.3854653168E+02    0.6093358994E+02    0.4407007599E+02    0    0
   24    2    1    2    0    0    0.1008420467E+02    0.1353850746E+02   -0.3505881882E+02    0.9557869720E+02    0.8729939270E+02    0    0
   22    1    1    2    0    0    0.1708826312E-03   -0.1307711354E-03   -0.1818349361E+01    0.1818349361E+01    0.0000000000E+00    0    0
   22    1    1    2    0    0   -0.1718007959E-02   -0.1910897321E-02   -0.1669364572E+01    0.1669366598E+01    0.0000000000E+00    0    0
   15    2    3    3    0    0   -0.7191934586E+01   -0.2975253487E+02    0.2651514244E+02    0.4053575897E+02    0.1777029991E+01    0    0
  -16    1    3    3    0    0   -0.2890722752E+01    0.1621606827E+02    0.1203138924E+02    0.2039783096E+02    0.0000000000E+00    0    0
   16    1    4    4    0    0   -0.1876322174E+02   -0.2064917374E+02   -0.4185123062E+02    0.5029882812E+02    0.0000000000E+00    0    0
  -15    2    4    4    0    0    0.2884742546E+02    0.3418768311E+02    0.6792411804E+01    0.4527986526E+02    0.1777029991E+01    0    0
   16    1    7    7    0    0   -0.1777268350E+00   -0.1256132841E+01    0.7985190153E+00    0.1499029398E+01    0.2363881504E-03    0    0
  -24    2    7    7    0    0   -0.7014491081E+01   -0.2849757385E+02    0.2571766663E+02    0.3903832626E+02    0.1130389690E+01    0    0
 -211    1   12   12    0    0   -0.2668059826E+01   -0.1020251179E+02    0.9500482559E+01    0.1419466209E+02    0.1395684183E+00    0    0
 -211    1   12   12    0    0   -0.1769043684E+01   -0.6449991703E+01    0.5673283100E+01    0.8771404266E+01    0.1395679414E+00    0    0
  211    1   12   12    0    0   -0.1869029880E+01   -0.8247656822E+01    0.7526879787E+01    0.1132212543E+02    0.1395680010E+00    0    0
  111    1   12   12    0    0   -0.7083574533E+00   -0.3597412825E+01    0.3017021656E+01    0.4750134945E+01    0.1349640340E+00    0    0
  -16    1   10   10    0    0    0.2369542122E+01    0.2410513163E+01    0.2634851336E+00    0.3390387535E+01    0.0000000000E+00    0    0
   24    2   10   10    0    0    0.2647901917E+02    0.3177851486E+02    0.6529194355E+01    0.4189126205E+02    0.1111265421E+01    0    0
  321    1   18   18    0    0    0.1119303799E+02    0.1316370392E+02    0.2566896200E+01    0.1747569275E+02    0.4936669767E+00    0    0
  130    1   18   18    0    0    0.1528597641E+02    0.1861480331E+02    0.3962296724E+01    0.2441555977E+02    0.4977199137E+00    0    0
</event>
<event>
   20 9999    1    0.9119999695E+02    0.7565275169E-02    0.1185000000E+00
   11   -1    0    0    0    0    0.0000000000E+00    0.0000000000E+00    0.8000000000E+02    0.8000000000E+02    0.5109988851E-03    0    0
  -11   -1    0    0    0    0    0.0000000000E+00    0.0000000000E+00   -0.8000000000E+02    0.8000000000E+02    0.5109988851E-03    0    0
  -24    2    1    2    0    0    0.4601174831E+01   -0.8006420135E+01   -0.4066267014E+01    0.7840954590E+02    0.7775762939E+02    0    0
   24    2    1    2    0    0   -0.4601174831E+01    0.8006420135E+01    0.4066267014E+01    0.8159045410E+02    0.8096415710E+02    0    0
   15    2    3    3    0    0    0.3229239273E+02   -0.1727429390E+02   -0.2330083084E+02    0.4344290924E+02    0.1777029991E+01    0    0
  -16    1    3    3    0    0   -0.2769121742E+02    0.9267874718E+01    0.1923456573E+02    0.3496663284E+02    0.0000000000E+00    0    0
   16    1    4    4    0    0   -0.1424928661E-01   -0.2732962227E+02    0.2760738373E+02    0.3884682846E+02    0.0000000000E+00    0    0
  -15    2    4    4    0    0   -0.4586925507E+01    0.3533604050E+02   -0.2354111671E+02    0.4274362946E+02    0.1777029991E+01    0    0
   16    1    5    5    0    0    0.1563436747E+01   -0.7571099997E+00   -0.1202828050E+01    0.2112899780E+01    0.3737624866E-04    0    0
  -24    2    5    5    0    0    0.3073022652E+02   -0.1651786423E+02   -0.2209892082E+02    0.4133172226E+02    0.1661967635E+01    0    0
 -211    1   10   10    0    0    0.2901504755E+01   -0.1533342600E+01   -0.1949809670E+01    0.3819830656E+01    0.1395680010E+00    0    0
 -211    1   10   10    0    0    0.6451248169E+01   -0.3740122318E+01   -0.4740183830E+01    0.8837190628E+01    0.1395679563E+00    0    0
 -211    1   10   10    0    0    0.1983141303E+01   -0.8149514198E+00   -0.1312786698E+01    0.2517912626E+01    0.1395680457E+00    0    0
  211    1   10   10    0    0    0.1361721897E+02   -0.7007287025E+01   -0.9620058060E+01    0.1808578873E+02    0.1395680457E+00    0    0
  211    1   10   10    0    0    0.5777114391E+01   -0.3422161579E+01   -0.4476082802E+01    0.8071000099E+01    0.1395680308E+00    0    0
  -16    1    8    8    0    0   -0.1457320005E+00    0.3167189658E+00   -0.2750676870E+00    0.4440846145E+00    0.4321228771E-03    0    0
   24    2    8    8    0    0   -0.4441374302E+01    0.3502071381E+02   -0.2326697540E+02    0.4230122375E+02    0.1365786791E+01    0    0
  111    1   17   17    0    0   -0.5356884003E+00    0.6762289047E+01   -0.4292987823E+01    0.8028914452E+01    0.1349637210E+00    0    0
  111    1   17   17    0    0   -0.3073522449E+00    0.3308841467E+01   -0.2068566561E+01    0.3916641474E+01    0.1349638104E+00    0    0
  321    1   17   17    0    0   -0.3598333597E+01    0.2494958305E+02   -0.1690542030E+02    0.3035566902E+02    0.4936670065E+00    0    0
</event>
<event>
   21 9999    1    0.9119999695E+02    0.7565275169E-02    0.1185000000E+00
   11   -1    0    0    0    0    0.0000000000E+00    0.0000000000E+00    0.8000000000E+02    0.8000000000E+02    0.5109988851E-03    0    0
  -11   -1    0    0    0    0    0.0000000000E+00    0.0000000000E+00   -0.8000000000E+02    0.8000000000E+02    0.5109988851E-03    0    0
  -24    2    1    2    0    0    0.4719909191E+01    0.4321806717E+02   -0.1048053837E+02    0.9080904388E+02    0.7903392792E+02    0    0
   24    2    1    2    0    0   -0.4721407890E+01   -0.4321723175E+02    0.1069172096E+02    0.6897976685E+02    0.5247737122E+02    0    0
   22    1    1    2    0    0    0.1498568687E-02   -0.8362284279E-03   -0.2111824900E+00    0.2111894637E+00    0.0000000000E+00    0    0
   15    2    3    3    0    0    0.3507032394E+02   -0.1541303396E+01    0.2353799582E+01    0.3522785187E+02    0.1777029991E+01    0    0
  -16    1    3    3    0    0   -0.3035041428E+02    0.4475937271E+02   -0.1283433819E+02    0.5558119583E+02    0.0000000000E+00    0    0
   16    1    4    4    0    0   -0.1584050846E+02   -0.2919387054E+02   -0.1594222355E+02    0.3684234238E+02    0.0000000000E+00    0    0
  -15    2    4    4    0    0    0.1111910057E+02   -0.1402336025E+02    0.2663394356E+02    0.3213742065E+02    0.1777029991E+01    0    0
   16    1    6    6    0    0    0.2055786848E+01   -0.3535446525E-01   -0.9648578241E-02    0.2056113482E+01    0.0000000000E+00    0    0
  -24    2    6    6    0    0    0.3301591492E+02   -0.1506009579E+01    0.2363540888E+01    0.3317312241E+02    0.1597162724E+01    0    0
 -211    1   11   11    0    0    0.1208811188E+02   -0.6977038980E+00    0.8225457668E+00    0.1213694000E+02    0.1395678818E+00    0    0
 -211    1   11   11    0    0    0.4863394737E+01   -0.9516334534E-01    0.5547315478E+00    0.4897843361E+01    0.1395678967E+00    0    0
 -211    1   11   11    0    0    0.6286262512E+01   -0.3074816167E+00    0.6050483584E+00    0.6324334145E+01    0.1395679414E+00    0    0
  211    1   11   11    0    0    0.7042738914E+01   -0.3238180578E+00    0.2638984621E+00    0.7056497097E+01    0.1395679414E+00    0    0
  211    1   11   11    0    0    0.7653495073E+00   -0.4146326333E-02    0.6353180856E-01    0.7805719376E+00    0.1395679414E+00    0    0
  111    1   11   11    0    0    0.1970059037E+01   -0.7769634575E-01    0.5378494784E-01    0.1976936340E+01    0.1349639893E+00    0    0
  -16    1    9    9    0    0    0.4762460232E+01   -0.6891786575E+01    0.1293025112E+02    0.1540678883E+02    0.0000000000E+00    0    0
  323    2    9    9    0    0    0.6357077599E+01   -0.7132125854E+01    0.1370474052E+02    0.1673189735E+02    0.9256330729E+00    0    0
  111    1   19   19    0    0    0.3310946465E+01   -0.4030312061E+01    0.7741477966E+01    0.9335656166E+01    0.1349640638E+00    0    0
  321    1   19   19    0    0    0.3046130896E+01   -0.3101813555E+01    0.5963263035E+01    0.7396240234E+01    0.4936669469E+00    0    0
</event>
<event>
   18 9999    1    0.9119999695E+02    0.7565275169E-02    0.1185000000E+00
   11   -1    0    0    0    0    0.0000000000E+00    0.0000000000E+00    0.8000000000E+02    0.8000000000E+02    0.5109988851E-03    0    0
  -11   -1    0    0    0    0    0.0000000000E+00    0.0000000000E+00   -0.8000000000E+02    0.8000000000E+02    0.5109988851E-03    0    0
  -24    2    1    2    0    0    0.3043725014E+01    0.1106660366E+02   -0.3455810785E+01    0.8038155365E+02    0.7948281860E+02    0    0
   24    2    1    2    0    0   -0.3043725014E+01   -0.1106660366E+02    0.3455810785E+01    0.7961844635E+02    0.7871099091E+02    0    0
   15    2    3    3    0    0    0.3051424026E+02   -0.1461633492E+02    0.1663560104E+02    0.3774463272E+02    0.1777029991E+01    0    0
  -16    1    3    3    0    0   -0.2747051620E+02    0.2568293762E+02   -0.2009141159E+02    0.4263692474E+02    0.0000000000E+00    0    0
   16    1    4    4    0    0    0.2223462105E+02   -0.3623097229E+02    0.9072058678E+01    0.4346681595E+02    0.0000000000E+00    0    0
  -15    2    4    4    0    0   -0.2527834702E+02    0.2516436768E+02   -0.5616248131E+01    0.3615163040E+02    0.1777029991E+01    0    0
   16    1    5    5    0    0    0.9192219377E+00   -0.6578552127E+00    0.6696430445E+00    0.1313835740E+01    0.5303389626E-03    0    0
  -24    2    5    5    0    0    0.2959621811E+02   -0.1395905399E+02    0.1596661186E+02    0.3643228149E+02    0.1259737253E+01    0    0
 -211    1   10   10    0    0    0.4760492325E+01   -0.2480667353E+01    0.2912986517E+01    0.6109088898E+01    0.1395679265E+00    0    0
  130    1   10   10    0    0    0.1295662975E+02   -0.6014017105E+01    0.6889813900E+01    0.1586694431E+02    0.4977200925E+00    0    0
  111    1   10   10    0    0    0.1187909889E+02   -0.5464370728E+01    0.6163812637E+01    0.1445624828E+02    0.1349639744E+00    0    0
  -16    1    8    8    0    0   -0.1328470945E+01    0.1037403464E+01   -0.3478566706E+00    0.1721059442E+01    0.4031324643E-03    0    0
   24    2    8    8    0    0   -0.2395087051E+02    0.2412795448E+02   -0.5268612862E+01    0.3443199158E+02    0.1414721847E+01    0    0
  111    1   15   15    0    0   -0.9041957855E+01    0.8973591805E+01   -0.2360425472E+01    0.1295654964E+02    0.1349637955E+00    0    0
  111    1   15   15    0    0   -0.5688008308E+01    0.6053887844E+01   -0.9118632674E+00    0.8357792854E+01    0.1349639595E+00    0    0
  321    1   15   15    0    0   -0.9220901489E+01    0.9100472450E+01   -0.1996323466E+01    0.1311764622E+02    0.4936669767E+00    0    0
</event>
<event>
   19 9999    1    0.9119999695E+02    0.7565275169E-02    0.1185000000E+00
   11   -1    0    0    0    0    0.0000000000E+00    0.0000000000E+00    0.8000000000E+02    0.8000000000E+02    0.5109988851E-03    0    0
  -11   -1    0    0    0    0    0.0000000000E+00    0.0000000000E+00   -0.8000000000E+02    0.8000000000E+02    0.5109988851E-03    0    0
  -24    2    1    2    0    0   -0.1350593185E+02    0.1180387065E+00   -0.2149742126E+02    0.8343564606E+02    0.7947920227E+02    0    0
   24    2    1    2    0    0    0.1350592422E+02   -0.1180179715E+00    0.2149732208E+02    0.7656425476E+02    0.7223244476E+02    0    0
   22    1    1    2    0    0    0.8207035535E-05   -0.2073522955E-04    0.9940060409E-04    0.1018714174E-03    0.0000000000E+00    0    0
   15    2    3    3    0    0    0.2824909592E+02    0.1953508568E+02   -0.6456127167E+01    0.3499243546E+02    0.1777029991E+01    0    0
  -16    1    3    3    0    0   -0.4175502777E+02   -0.1941704750E+02   -0.1504129410E+02    0.4844321060E+02    0.0000000000E+00    0    0
   16    1    4    4    0    0    0.8531874657E+01   -0.3303001022E+02   -0.4341250896E+01    0.3438925934E+02    0.0000000000E+00    0    0
  -15    2    4    4    0    0    0.4974049091E+01    0.3291199493E+02    0.2583857346E+02    0.4217499542E+02    0.1777029991E+01    0    0
   16    1    6    6    0    0    0.1055492878E+02    0.7469344139E+01   -0.2371208906E+01    0.1314611244E+02    0.2157918607E-04    0    0
  -24    2    6    6    0    0    0.1769528008E+02    0.1206651211E+02   -0.4085172653E+01    0.2184770012E+02    0.1381936312E+01    0    0
  111    1   11   11    0    0    0.6544886112E+01    0.4400694370E+01   -0.1270990968E+01    0.7989698410E+01    0.1349639446E+00    0    0
  111    1   11   11    0    0    0.7197843075E+01    0.5251197815E+01   -0.1903521657E+01    0.9111840248E+01    0.1349640787E+00    0    0
 -321    1   11   11    0    0    0.3952549934E+01    0.2414618731E+01   -0.9106595516E+00    0.4746160984E+01    0.4936670661E+00    0    0
  -16    1    9    9    0    0    0.1631350398E+01    0.9278734207E+01    0.7279584408E+01    0.1190582085E+02    0.2499645780E-04    0    0
   24    2    9    9    0    0    0.3342894554E+01    0.2363455582E+02    0.1856000519E+02    0.3027083397E+02    0.1443076968E+01    0    0
  211    1   16   16    0    0    0.2459056139E+01    0.1668615723E+02    0.1277706051E+02    0.2116004562E+02    0.1395679116E+00    0    0
  310    1   16   16    0    0    0.4422147274E+00    0.3855098248E+01    0.3164019346E+01    0.5031508923E+01    0.4977200627E+00    0    0
  111    1   16   16    0    0    0.4416238666E+00    0.3093299866E+01    0.2618926287E+01    0.4079279900E+01    0.1349640191E+00    0    0
</event>
<event>
   22 9999    1    0.9119999695E+02    0.7565275169E-02    0.1185000000E+00
   11   -1    0    0    0    0    0.0000000000E+00    0.0000000000E+00    0.8000000000E+02    0.8000000000E+02    0.5109988851E-03    0    0
  -11   -1    0    0    0    0    0.0000000000E+00    0.0000000000E+00   -0.8000000000E+02    0.8000000000E+02    0.5109988851E-03    0    0
  -24    2    1    2    0    0    0.5427449226E+01    0.1194343758E+02    0.2406066418E+01    0.8080369568E+02    0.7969532776E+02    0    0
   24    2    1    2    0    0   -0.5427423954E+01   -0.1194343090E+02   -0.3360707998E+01    0.7824166107E+02    0.7706076050E+02    0    0
   22    1    1    2    0    0   -0.2487112215E-04   -0.6065360594E-05    0.9009999633E+00    0.9009999633E+00    0.0000000000E+00    0    0
   22    1    1    2    0    0   -0.2185271626E-06   -0.6326549737E-06    0.5348207057E-01    0.5348207057E-01    0.0000000000E+00    0    0
   22    1    1    2    0    0   -0.5958944982E-07   -0.8072719737E-07    0.1595290669E-03    0.1595290960E-03    0.0000000000E+00    0    0
   15    2    3    3    0    0    0.4140975189E+02    0.1194915867E+02   -0.6784523487E+01    0.4366620636E+02    0.1777029991E+01    0    0
  -16    1    3    3    0    0   -0.3598230362E+02   -0.5721827038E-02    0.9190589905E+01    0.3713748932E+02    0.0000000000E+00    0    0
   16    1    4    4    0    0    0.2718700981E+02    0.1237483692E+02    0.1516990662E+02    0.3350218201E+02    0.0000000000E+00    0    0
  -15    2    4    4    0    0   -0.3261443329E+02   -0.2431826782E+02   -0.1853061485E+02    0.4473947906E+02    0.1777029991E+01    0    0
   16    1    8    8    0    0    0.2238261253E+00    0.1615204066E+00   -0.8974763751E-01    0.2902439833E+00    0.2474559878E-03    0    0
*****    2    8    8    0    0    0.4118755722E+02    0.1178810978E+02   -0.6695043087E+01    0.4337768555E+02    0.1193873644E+01    0    0
 -211    1   13   13    0    0    0.1783156967E+02    0.5004429817E+01   -0.3263630152E+01    0.1880637932E+02    0.1395679116E+00    0    0
 -211    1   13   13    0    0    0.2073360682E+01    0.7055529952E+00   -0.3994058669E+00    0.2230612993E+01    0.1395679265E+00    0    0
  211    1   13   13    0    0    0.2128263474E+02    0.6078128338E+01   -0.3032007933E+01    0.2234069824E+02    0.1395678520E+00    0    0
  -16    1   11   11    0    0   -0.1520850849E+02   -0.1101007271E+02   -0.8599041939E+01    0.2065100288E+02    0.3507862566E-03    0    0
   24    2   11   11    0    0   -0.1740720940E+02   -0.1330915260E+02   -0.9932302475E+01    0.2409023666E+02    0.1242732644E+01    0    0
  111    1   18   18    0    0   -0.2914158821E+01   -0.2503183842E+01   -0.1656911254E+01    0.4185907364E+01    0.1349640936E+00    0    0
  111    1   18   18    0    0   -0.3266578674E+01   -0.2285636187E+01   -0.1680838823E+01    0.4328752995E+01    0.1349634230E+00    0    0
  111    1   18   18    0    0   -0.5273649216E+01   -0.4396337032E+01   -0.3267945528E+01    0.7605053425E+01    0.1349641532E+00    0    0
  211    1   18   18    0    0   -0.5952824116E+01   -0.4123996258E+01   -0.3326607227E+01    0.7970523834E+01    0.1395680755E+00    0    0
</event>
<event>
   18 9999    1    0.9119999695E+02    0.7565275169E-02    0.1185000000E+00
   11   -1    0    0    0    0    0.0000000000E+00    0.0000000000E+00    0.8000000000E+02    0.8000000000E+02    0.5109988851E-03    0    0
  -11   -1    0    0    0    0    0.0000000000E+00    0.0000000000E+00   -0.8000000000E+02    0.8000000000E+02    0.5109988851E-03    0    0
  -24    2    1    2    0    0    0.3387856007E+01   -0.5034414768E+01   -0.5615942478E+01    0.8094689941E+02    0.8052352905E+02    0    0
   24    2    1    2    0    0   -0.3387856007E+01    0.5034414768E+01    0.5615942478E+01    0.7905310059E+02    0.7861953735E+02    0    0
   15    2    3    3    0    0   -0.1541229820E+02   -0.5552449226E+01    0.3195787621E+02    0.3595597458E+02    0.1777029991E+01    0    0
  -16    1    3    3    0    0    0.1980568504E+02    0.4305756390E+00   -0.3870176315E+02    0.4347731781E+02    0.0000000000E+00    0    0
   22    1    3    3    0    0   -0.1005530715E+01    0.8745890111E-01    0.1127945900E+01    0.1513605952E+01    0.0000000000E+00    0    0
   16    1    4    4    0    0    0.2542242050E+02   -0.2208455658E+02   -0.1194160557E+02    0.3572994614E+02    0.0000000000E+00    0    0
  -15    2    4    4    0    0   -0.2881027603E+02    0.2711897087E+02    0.1755754852E+02    0.4332315826E+02    0.1777029991E+01    0    0
   16    1    5    5    0    0   -0.2706712008E+01   -0.1305892587E+01    0.5332924366E+01    0.6121415138E+01    0.6011265796E-03    0    0
  -24    2    5    5    0    0   -0.1270619392E+02   -0.4246775627E+01    0.2662621117E+02    0.2983597755E+02    0.1322140336E+01    0    0
 -321    1   11   11    0    0   -0.5880034447E+01   -0.1977554917E+01    0.1223701954E+02    0.1372857857E+02    0.4936670959E+00    0    0
  111    1   11   11    0    0   -0.2116343498E+01   -0.9374355078E+00    0.4528644085E+01    0.5087683678E+01    0.1349641383E+00    0    0
  130    1   11   11    0    0   -0.4709816456E+01   -0.1331785321E+01    0.9860548973E+01    0.1101971626E+02    0.4977200031E+00    0    0
  -16    1    9    9    0    0   -0.1376736832E+02    0.1284413433E+02    0.9139883995E+01    0.2092963791E+02    0.0000000000E+00    0    0
  213    2    9    9    0    0   -0.1504404068E+02    0.1427590275E+02    0.8418354988E+01    0.2239522362E+02    0.7434959412E+00    0    0
  211    1   16   16    0    0   -0.2017350197E+01    0.1730806470E+01    0.9118212461E+00    0.2813590288E+01    0.1395681649E+00    0    0
  111    1   16   16    0    0   -0.1302669239E+02    0.1254509735E+02    0.7506534576E+01    0.1958163643E+02    0.1349642873E+00    0    0
</event>
<event>
   19 9999    1    0.9119999695E+02    0.7565275169E-02    0.1185000000E+00
   11   -1    0    0    0    0    0.0000000000E+00    0.0000000000E+00    0.8000000000E+02    0.8000000000E+02    0.5109988851E-03    0    0
  -11   -1    0    0    0    0    0.0000000000E+00    0.0000000000E+00   -0.8000000000E+02    0.8000000000E+02    0.5109988851E-03    0    0
  -24    2    1    2    0    0    0.4742055893E+01   -0.2361829042E+01    0.1051290751E+01    0.8174304962E+02    0.8156442261E+02    0    0
   24    2    1    2    0    0   -0.4742076874E+01    0.2361743689E+01   -0.7964892387E+00    0.7800215149E+02    0.7781796265E+02    0    0
   22    1    1    2    0    0    0.2258539098E-04    0.8143500600E-04   -0.2367425859E+00    0.2367426008E+00    0.0000000000E+00    0    0
   22    1    1    2    0    0   -0.1422617288E-05    0.3987989203E-05   -0.1805883460E-01    0.1805883646E-01    0.0000000000E+00    0    0
   15    2    3    3    0    0    0.2078354645E+02    0.3512607956E+02    0.2622220755E+01    0.4093691635E+02    0.1777029991E+01    0    0
  -16    1    3    3    0    0   -0.1604149055E+02   -0.3748790741E+02   -0.1570930004E+01    0.4080613327E+02    0.0000000000E+00    0    0
   16    1    4    4    0    0    0.2601017380E+02    0.8230773926E+01   -0.2605866241E+02    0.3772702408E+02    0.0000000000E+00    0    0
  -15    2    4    4    0    0   -0.2954445648E+02   -0.5533516407E+01    0.2436128426E+02    0.3873145294E+02    0.1777029991E+01    0    0
   22    1    4    4    0    0   -0.1207793832E+01   -0.3355139196E+00    0.9008877277E+00    0.1543675661E+01    0.0000000000E+00    0    0
   16    1    7    7    0    0    0.1688773155E+01    0.2628689528E+01    0.5451586843E+00    0.3171617985E+01    0.1726334885E-03    0    0
   13    1    7    7    0    0    0.1858990479E+02    0.3168983459E+02    0.1852720261E+01    0.3678687286E+02    0.1056588888E+00    0    0
  -14    1    7    7    0    0    0.5056877136E+00    0.8089383841E+00    0.2244450599E+00    0.9800392985E+00    0.1881229837E-03    0    0
  -16    1   10   10    0    0   -0.1706494689E+01   -0.2086728066E+00    0.1244731665E+01    0.2122504950E+01    0.2479259856E-03    0    0
   24    2   10   10    0    0   -0.2783917427E+02   -0.5325070381E+01    0.2311755562E+02    0.3661054230E+02    0.1591716647E+01    0    0
  130    1   16   16    0    0   -0.6853922844E+01   -0.1178641915E+01    0.5848212242E+01    0.9100263596E+01    0.4977200031E+00    0    0
  211    1   16   16    0    0   -0.5184132576E+01   -0.1021534562E+01    0.3840711594E+01    0.6533707142E+01    0.1395680606E+00    0    0
  310    1   16   16    0    0   -0.1580112267E+02   -0.3124894381E+01    0.1342863274E+02    0.2097657204E+02    0.4977199137E+00    0    0
</event>
<event>
   21 9999    1    0.9119999695E+02    0.7565275169E-02    0.1185000000E+00
   11   -1    0    0    0    0    0.0000000000E+00    0.0000000000E+00    0.8000000000E+02    0.8000000000E+02    0.5109988851E-03    0    0
  -11   -1    0    0    0    0    0.0000000000E+00    0.0000000000E+00   -0.8000000000E+02    0.8000000000E+02    0.5109988851E-03    0    0
  -24    2    1    2    0    0    0.3939157248E+01    0.4553459167E+01   -0.5007057667E+01    0.7970147705E+02    0.7931584930E+02    0    0
   24    2    1    2    0    0   -0.3939193010E+01   -0.4553432465E+01    0.4944725990E+01    0.8023619080E+02    0.7985702515E+02    0    0
   22    1    1    2    0    0    0.3569648470E-04   -0.2673109520E-04    0.6233154610E-01    0.6233156100E-01    0.0000000000E+00    0    0
   15    2    3    3    0    0    0.3780910873E+02    0.1858898544E+02    0.2631898642E+01    0.4225120163E+02    0.1777029991E+01    0    0
  -16    1    3    3    0    0   -0.3386995316E+02   -0.1403552532E+02   -0.7638956547E+01    0.3745027924E+02    0.0000000000E+00    0    0
   16    1    4    4    0    0    0.3717175293E+02    0.5637974739E+01    0.3828015029E+00    0.3759883881E+02    0.0000000000E+00    0    0
  -15    2    4    4    0    0   -0.4111094666E+02   -0.1019140720E+02    0.4561924458E+01    0.4263735199E+02    0.1777029991E+01    0    0
   16    1    6    6    0    0    0.4180224419E+01    0.1735249043E+01    0.4014914036E+00    0.4543848515E+01    0.2571456716E-03    0    0
  -24    2    6    6    0    0    0.3363037491E+02    0.1685446739E+02    0.2230510950E+01    0.3770901489E+02    0.1385443807E+01    0    0
 -211    1   11   11    0    0    0.1534813404E+01    0.9025767446E+00    0.2321484536E+00    0.1801018834E+01    0.1395679563E+00    0    0
  130    1   11   11    0    0    0.1401362324E+02    0.6770282745E+01    0.7306231260E+00    0.1558845425E+02    0.4977200329E+00    0    0
  111    1   11   11    0    0    0.1808193970E+02    0.9181609154E+01    0.1267739534E+01    0.2031954384E+02    0.1349640787E+00    0    0
  -16    1    9    9    0    0   -0.7644478798E+01   -0.1948284507E+01    0.6133195758E+00    0.7912649632E+01    0.5980199785E-03    0    0
   24    2    9    9    0    0   -0.3346808624E+02   -0.8243523598E+01    0.3948784351E+01    0.3472637939E+02    0.1503347874E+01    0    0
  211    1   16   16    0    0   -0.1254330730E+02   -0.2780539274E+01    0.1196235180E+01    0.1290412331E+02    0.1395678073E+00    0    0
  211    1   16   16    0    0   -0.4058965206E+01   -0.1273042560E+01    0.5608469844E+00    0.4293001652E+01    0.1395679563E+00    0    0
 -211    1   16   16    0    0   -0.4752689362E+01   -0.1250647664E+01    0.6630976796E+00    0.4960982800E+01    0.1395680010E+00    0    0
  111    1   16   16    0    0   -0.7751466751E+01   -0.1713647366E+01    0.8498568535E+00    0.7985129833E+01    0.1349639297E+00    0    0
  111    1   16   16    0    0   -0.4361659050E+01   -0.1225647092E+01    0.6787478328E+00    0.4583142281E+01    0.1349639744E+00    0    0
</event>
<event>
   18 9999    1    0.9119999695E+02    0.7565275169E-02    0.1185000000E+00
   11   -1    0    0    0    0    0.0000000000E+00    0.0000000000E+00    0.8000000000E+02    0.8000000000E+02    0.5109988851E-03    0    0
  -11   -1    0    0    0    0    0.0000000000E+00    0.0000000000E+00   -0.8000000000E+02    0.8000000000E+02    0.5109988851E-03    0    0
  -24    2    1    2    0    0   -0.8526459694E+01    0.1412924671E+02    0.8099656105E+01    0.8249870300E+02    0.8042446899E+02    0    0
   24    2    1    2    0    0    0.8589771271E+01   -0.1418716526E+02   -0.8017433167E+01    0.7738245392E+02    0.7515786743E+02    0    0
   22    1    1    2    0    0   -0.6331174821E-01    0.5791870132E-01   -0.8222278208E-01    0.1188425049E+00    0.0000000000E+00    0    0
   15    2    3    3    0    0    0.3603378296E+02    0.6461526394E+01    0.5377485156E+00    0.3665558243E+02    0.1777029991E+01    0    0
  -16    1    3    3    0    0   -0.4456024170E+02    0.7667719841E+01    0.7561907291E+01    0.4584312057E+02    0.0000000000E+00    0    0
   16    1    4    4    0    0    0.2808098221E+02    0.1922530937E+02   -0.1637756348E+02    0.3776742935E+02    0.0000000000E+00    0    0
  -15    2    4    4    0    0   -0.1949121094E+02   -0.3341247559E+02    0.8360130310E+01    0.3961502838E+02    0.1777029991E+01    0    0
   16    1    6    6    0    0    0.2815952873E+02    0.4552969933E+01    0.7585922480E+00    0.2853531075E+02    0.3343033313E-03    0    0
 -321    1    6    6    0    0    0.7875674725E+01    0.1908810973E+01   -0.2208225578E+00    0.8121716499E+01    0.4936669767E+00    0    0
  -16    1    9    9    0    0   -0.3631114662E+00   -0.9989329576E+00    0.2472912520E+00    0.1091269851E+01    0.1062651718E-03    0    0
   24    2    9    9    0    0   -0.1912886620E+02   -0.3241485596E+02    0.8113167763E+01    0.3852531815E+02    0.1319105387E+01    0    0
  211    1   13   13    0    0   -0.3791658163E+01   -0.6278350830E+01    0.1321919084E+01    0.7453945637E+01    0.1395679563E+00    0    0
  211    1   13   13    0    0   -0.7077188492E+01   -0.1199637318E+02    0.2974184513E+01    0.1424306202E+02    0.1395679861E+00    0    0
  211    1   13   13    0    0   -0.3793471098E+01   -0.6871243954E+01    0.1762350798E+01    0.8045481682E+01    0.1395679861E+00    0    0
 -211    1   13   13    0    0   -0.1386086345E+01   -0.2129247427E+01    0.5542474389E+00    0.2604150295E+01    0.1395679861E+00    0    0
 -211    1   13   13    0    0   -0.3080463171E+01   -0.5139642239E+01    0.1500466108E+01    0.6178677082E+01    0.1395679861E+00    0    0
</event>
<event>
   19 9999    1    0.9119999695E+02    0.7565275169E-02    0.1185000000E+00
   11   -1    0    0    0    0    0.0000000000E+00    0.0000000000E+00    0.8000000000E+02    0.8000000000E+02    0.5109988851E-03    0    0
  -11   -1    0    0    0    0    0.0000000000E+00    0.0000000000E+00   -0.8000000000E+02    0.8000000000E+02    0.5109988851E-03    0    0
  -24    2    1    2    0    0   -0.8285108566E+01   -0.1190917587E+02   -0.2646519852E+02    0.8770247650E+02    0.8234589386E+02    0    0
   24    2    1    2    0    0    0.8285108566E+01    0.1190917587E+02    0.2646488190E+02    0.7229720306E+02    0.6569645691E+02    0    0
   22    1    1    2    0    0    0.1275908090E-06    0.3418326244E-07    0.3150333068E-03    0.3150333359E-03    0.0000000000E+00    0    0
   15    2    3    3    0    0   -0.2807239723E+02   -0.1237979984E+02    0.2036081505E+02    0.3686515427E+02    0.1777029991E+01    0    0
  -16    1    3    3    0    0    0.1978728867E+02    0.4706241190E+00   -0.4682601166E+02    0.5083732605E+02    0.0000000000E+00    0    0
   16    1    4    4    0    0   -0.7296969414E+01   -0.2447359085E+02    0.1935804558E+02    0.3204584885E+02    0.0000000000E+00    0    0
  -15    2    4    4    0    0    0.1558207798E+02    0.3638276672E+02    0.7106837749E+01    0.4025135803E+02    0.1777029991E+01    0    0
   16    1    6    6    0    0   -0.1276784897E+01   -0.5299855471E+00    0.7013901472E+00    0.1550165296E+01    0.3506202775E-03    0    0
  -24    2    6    6    0    0   -0.2679671669E+02   -0.1185030270E+02    0.1966022682E+02    0.3531644058E+02    0.1494219661E+01    0    0
 -211    1   11   11    0    0   -0.5252213955E+01   -0.2157341957E+01    0.3546633959E+01    0.6696115971E+01    0.1395678818E+00    0    0
  310    1   11   11    0    0   -0.1007032585E+02   -0.4766647816E+01    0.7130331516E+01    0.1323713493E+02    0.4977199733E+00    0    0
  111    1   11   11    0    0   -0.1147417831E+02   -0.4926312923E+01    0.8983262062E+01    0.1538319016E+02    0.1349637359E+00    0    0
  -16    1    9    9    0    0    0.3613268614E+01    0.8948007584E+01    0.1432229280E+01    0.9755707741E+01    0.4805912904E-03    0    0
   24    2    9    9    0    0    0.1196942234E+02    0.2743619156E+02    0.5674888134E+01    0.3049723434E+02    0.1365768194E+01    0    0
  211    1   16   16    0    0    0.2316957235E+01    0.4945214748E+01    0.1278596044E+01    0.5610501289E+01    0.1395679265E+00    0    0
  310    1   16   16    0    0    0.5478610516E+01    0.1224274540E+02    0.2706034660E+01    0.1369198036E+02    0.4977201223E+00    0    0
  111    1   16   16    0    0    0.4173854351E+01    0.1024822998E+02    0.1690257072E+01    0.1119475079E+02    0.1349639297E+00    0    0
</event>
<event>
   18 9999    1    0.9119999695E+02    0.7565275169E-02    0.1185000000E+00
   11   -1    0    0    0    0    0.0000000000E+00    0.0000000000E+00    0.8000000000E+02    0.8000000000E+02    0.5109988851E-03    0    0
  -11   -1    0    0    0    0    0.0000000000E+00    0.0000000000E+00   -0.8000000000E+02    0.8000000000E+02    0.5109988851E-03    0    0
  -24    2    1    2    0    0    0.1024563217E+02    0.1701118851E+02   -0.4926947594E+01    0.8223413086E+02    0.7964812469E+02    0    0
   24    2    1    2    0    0   -0.1024563217E+02   -0.1701118851E+02    0.4926639557E+01    0.7776556396E+02    0.7502571106E+02    0    0
   22    1    1    2    0    0   -0.1396498917E-07    0.1696249541E-07    0.3081315663E-03    0.3081315663E-03    0.0000000000E+00    0    0
   15    2    3    3    0    0    0.2606861496E+02    0.9533390999E+01    0.3137816429E+02    0.4193095779E+02    0.1777029991E+01    0    0
  -16    1    3    3    0    0   -0.1582298374E+02    0.7477797031E+01   -0.3630511093E+02    0.4030316925E+02    0.0000000000E+00    0    0
   16    1    4    4    0    0    0.2566984940E+02    0.1137885571E+01    0.2218208504E+02    0.3394526291E+02    0.0000000000E+00    0    0
  -15    2    4    4    0    0   -0.3591548157E+02   -0.1814907455E+02   -0.1725544548E+02    0.4382030106E+02    0.1777029991E+01    0    0
   16    1    6    6    0    0    0.6003079414E+01    0.1930686712E+01    0.6638265610E+01    0.9155931473E+01    0.0000000000E+00    0    0
  -24    2    6    6    0    0    0.2006656265E+02    0.7603080273E+01    0.2474113464E+02    0.3277667999E+02    0.1308871984E+01    0    0
 -321    1   11   11    0    0    0.1490010643E+02    0.5941868782E+01    0.1844273567E+02    0.2444784546E+02    0.4936670065E+00    0    0
  310    1   11   11    0    0    0.5166456699E+01    0.1661211491E+01    0.6298399925E+01    0.8328833580E+01    0.4977201223E+00    0    0
  -16    1    9    9    0    0   -0.1692986488E+02   -0.8601871490E+01   -0.7841343880E+01    0.2054505348E+02    0.3112194536E-03    0    0
   24    2    9    9    0    0   -0.1898703003E+02   -0.9547917366E+01   -0.9414780617E+01    0.2327697563E+02    0.1228586078E+01    0    0
  111    1   15   15    0    0   -0.2923439741E+01   -0.1430104971E+01   -0.1234176517E+01    0.3483260870E+01    0.1349634975E+00    0    0
  111    1   15   15    0    0   -0.2933772326E+01   -0.1404869914E+01   -0.1183717012E+01    0.3464113235E+01    0.1349639893E+00    0    0
  321    1   15   15    0    0   -0.1312981892E+02   -0.6712942600E+01   -0.6996887684E+01    0.1632960129E+02    0.4936670065E+00    0    0
</event>
<event>
   20 9999    1    0.9119999695E+02    0.7565275169E-02    0.1185000000E+00
   11   -1    0    0    0    0    0.0000000000E+00    0.0000000000E+00    0.8000000000E+02    0.8000000000E+02    0.5109988851E-03    0    0
  -11   -1    0    0    0    0    0.0000000000E+00    0.0000000000E+00   -0.8000000000E+02    0.8000000000E+02    0.5109988851E-03    0    0
  -24    2    1    2    0    0    0.2334204292E+02   -0.6228773117E+01    0.1325194263E+02    0.8450217438E+02    0.7988338470E+02    0    0
   24    2    1    2    0    0   -0.2334203148E+02    0.6228769302E+01   -0.1327093506E+02    0.7547882843E+02    0.7026583862E+02    0    0
   22    1    1    2    0    0   -0.1289449028E-04    0.8592602967E-06    0.1565871015E-01    0.1565871574E-01    0.0000000000E+00    0    0
   22    1    1    2    0    0    0.9072435887E-06    0.3135299949E-05    0.3333541565E-02    0.3333543194E-02    0.0000000000E+00    0    0
   15    2    3    3    0    0    0.2278009224E+02    0.3523138809E+02    0.6525454998E+01    0.4249614716E+02    0.1777029991E+01    0    0
  -16    1    3    3    0    0    0.5619500279E+00   -0.4146015930E+02    0.6726487637E+01    0.4200602722E+02    0.0000000000E+00    0    0
   16    1    4    4    0    0   -0.8336744308E+01    0.3178714180E+02    0.1347510529E+02    0.3551763153E+02    0.0000000000E+00    0    0
  -15    2    4    4    0    0   -0.1500528622E+02   -0.2555837250E+02   -0.2674604034E+02    0.3996120071E+02    0.1777029991E+01    0    0
   16    1    7    7    0    0    0.1232296348E+01    0.1701048613E+01    0.2463399470E+00    0.2114900589E+01    0.4916077596E-03    0    0
  -24    2    7    7    0    0    0.2154869270E+02    0.3353172302E+02    0.6279371738E+01    0.4038291931E+02    0.1620809317E+01    0    0
  221    1   12   12    0    0    0.3901141882E+01    0.5762347698E+01    0.1143915892E+01    0.7073421001E+01    0.5487999916E+00    0    0
 -211    1   12   12    0    0    0.1278700066E+02    0.1984306526E+02    0.3405035019E+01    0.2385096169E+02    0.1395679265E+00    0    0
  111    1   12   12    0    0    0.4860549927E+01    0.7926309109E+01    0.1730420589E+01    0.9458535194E+01    0.1349639744E+00    0    0
  -16    1   10   10    0    0   -0.2847566843E+01   -0.4474463463E+01   -0.5348192215E+01    0.7532105923E+01    0.3229676804E-03    0    0
   24    2   10   10    0    0   -0.1215830994E+02   -0.2108491516E+02   -0.2139890099E+02    0.3243066788E+02    0.1198780537E+01    0    0
  211    1   17   17    0    0   -0.1915690422E+01   -0.3465471506E+01   -0.3136575222E+01    0.5053409100E+01    0.1395680457E+00    0    0
  111    1   17   17    0    0   -0.8938476562E+01   -0.1497153282E+02   -0.1535946846E+02    0.2323735428E+02    0.1349643916E+00    0    0
   22    1   17   17    0    0   -0.1304144144E+01   -0.2647913218E+01   -0.2902859688E+01    0.4139906883E+01    0.1671516657E-03    0    0
</event>
<event>
   15 9999    1    0.9119999695E+02    0.7565275169E-02    0.1185000000E+00
   11   -1    0    0    0    0    0.0000000000E+00    0.0000000000E+00    0.8000000000E+02    0.8000000000E+02    0.5109988851E-03    0    0
  -11   -1    0    0    0    0    0.0000000000E+00    0.0000000000E+00   -0.8000000000E+02    0.8000000000E+02    0.5109988851E-03    0    0
  -24    2    1    2    0    0    0.8265635490E+01   -0.4466640472E+01    0.2551969147E+02    0.6838920593E+02    0.6274995804E+02    0    0
   24    2    1    2    0    0   -0.1088079071E+02    0.4111581326E+01   -0.2967974281E+02    0.8668421936E+02    0.8060998535E+02    0    0
   22    1    1    2    0    0    0.2615155697E+01    0.3550590277E+00    0.4160051346E+01    0.4926574230E+01    0.0000000000E+00    0    0
   15    2    3    3    0    0    0.3327097321E+02   -0.1025114155E+02    0.2467617607E+02    0.4270966339E+02    0.1777029991E+01    0    0
  -16    1    3    3    0    0   -0.2500533867E+02    0.5784501076E+01    0.8435153365E+00    0.2567954445E+02    0.0000000000E+00    0    0
   16    1    4    4    0    0    0.1993026924E+02    0.3150880575E+01    0.1985856438E+02    0.2831088638E+02    0.0000000000E+00    0    0
  -15    2    4    4    0    0   -0.3081105995E+02    0.9607008100E+00   -0.4953830719E+02    0.5837333298E+02    0.1777029991E+01    0    0
   16    1    6    6    0    0    0.2663184929E+02   -0.7787181377E+01    0.2013032913E+02    0.3428010559E+02    0.3452669771E-03    0    0
 -321    1    6    6    0    0    0.6640436649E+01   -0.2464364052E+01    0.4546819687E+01    0.8431237221E+01    0.4936669767E+00    0    0
  -16    1    9    9    0    0   -0.1349764252E+02    0.4357316494E+00   -0.2212341881E+02    0.2591952705E+02    0.1220703125E-03    0    0
   24    2    9    9    0    0   -0.1731462860E+02    0.5250069499E+00   -0.2741683769E+02    0.3245610428E+02    0.1282044053E+01    0    0
  321    1   13   13    0    0   -0.4008839130E+01    0.2163031697E+00   -0.6020308495E+01    0.7252958298E+01    0.4936670363E+00    0    0
  130    1   13   13    0    0   -0.1330579090E+02    0.3087038398E+00   -0.2139653015E+02    0.2520314598E+02    0.4977199435E+00    0    0
</event>
<event>
   19 9999    1    0.9119999695E+02    0.7565275169E-02    0.1185000000E+00
   11   -1    0    0    0    0    0.0000000000E+00    0.0000000000E+00    0.8000000000E+02    0.8000000000E+02    0.5109988851E-03    0    0
  -11   -1    0    0    0    0    0.0000000000E+00    0.0000000000E+00   -0.8000000000E+02    0.8000000000E+02    0.5109988851E-03    0    0
  -24    2    1    2    0    0   -0.1068842888E+02    0.2344556093E+01    0.2736826134E+02    0.7583848572E+02    0.6987641907E+02    0    0
   24    2    1    2    0    0    0.1069459438E+02   -0.2332941771E+01   -0.2745285988E+02    0.8407590485E+02    0.7871010590E+02    0    0
   22    1    1    2    0    0   -0.6166382693E-02   -0.1161445677E-01    0.8459775150E-01    0.8561366796E-01    0.0000000000E+00    0    0
   15    2    3    3    0    0   -0.7163518906E+01    0.3555277634E+02    0.7821309090E+01    0.3714359665E+02    0.1777029991E+01    0    0
  -16    1    3    3    0    0   -0.3524909496E+01   -0.3320822144E+02    0.1954695320E+02    0.3869488907E+02    0.0000000000E+00    0    0
   16    1    4    4    0    0   -0.2734108925E+01    0.2378147125E+02    0.1798809814E+02    0.2994336891E+02    0.0000000000E+00    0    0
  -15    2    4    4    0    0    0.1342870331E+02   -0.2611441231E+02   -0.4544095993E+02    0.5413253403E+02    0.1777029991E+01    0    0
   16    1    6    6    0    0   -0.5671744347E+00    0.3302820921E+01    0.6860907674E+00    0.3420677423E+01    0.3604434896E-03    0    0
  -24    2    6    6    0    0   -0.6596626282E+01    0.3225135803E+02    0.7135526180E+01    0.3372438049E+02    0.1659112811E+01    0    0
  221    1   11   11    0    0   -0.1538461328E+01    0.8055080414E+01    0.1712997198E+01    0.8395637512E+01    0.5488000512E+00    0    0
 -211    1   11   11    0    0   -0.1617112637E+01    0.6595753193E+01    0.1101226807E+01    0.6881220341E+01    0.1395681202E+00    0    0
  111    1   11   11    0    0   -0.3441051960E+01    0.1760051918E+02    0.4321301460E+01    0.1844751930E+02    0.1349638999E+00    0    0
  -16    1    9    9    0    0    0.4503540993E+01   -0.9134357452E+01   -0.1547567558E+02    0.1852606010E+02    0.4250606871E-03    0    0
   24    2    9    9    0    0    0.8925691605E+01   -0.1698108292E+02   -0.2996707153E+02    0.3560860443E+02    0.1386419535E+01    0    0
  321    1   16   16    0    0    0.5730571270E+01   -0.1029192734E+02   -0.1851652718E+02    0.2195150757E+02    0.4936669767E+00    0    0
  111    1   16   16    0    0    0.1184977770E+01   -0.2502644777E+01   -0.4213334084E+01    0.5043590546E+01    0.1349636167E+00    0    0
  310    1   16   16    0    0    0.2010143518E+01   -0.4186512947E+01   -0.7237215042E+01    0.8613511086E+01    0.4977199733E+00    0    0
</event>
<event>
   19 9999    1    0.9119999695E+02    0.7565275169E-02    0.1185000000E+00
   11   -1    0    0    0    0    0.0000000000E+00    0.0000000000E+00    0.8000000000E+02    0.8000000000E+02    0.5109988851E-03    0    0
  -11   -1    0    0    0    0    0.0000000000E+00    0.0000000000E+00   -0.8000000000E+02    0.8000000000E+02    0.5109988851E-03    0    0
  -24    2    1    2    0    0    0.3116921186E+01   -0.9565556049E+00    0.4082594872E+01    0.8372884369E+02    0.8356566620E+02    0    0
   24    2    1    2    0    0   -0.3117031574E+01    0.9559177160E+00   -0.4004428864E+01    0.7619299316E+02    0.7601780701E+02    0    0
   22    1    1    2    0    0    0.1103824616E-03    0.6378656835E-03   -0.7816612720E-01    0.7816880196E-01    0.0000000000E+00    0    0
   15    2    3    3    0    0    0.3160469818E+02    0.2285631418E+01    0.3102675438E+02    0.4438353729E+02    0.1777029991E+01    0    0
  -16    1    3    3    0    0   -0.2848777771E+02   -0.3242187023E+01   -0.2694415855E+02    0.3934530258E+02    0.0000000000E+00    0    0
   16    1    4    4    0    0    0.8259217262E+01   -0.2484235001E+02    0.2464687729E+02    0.3595588303E+02    0.0000000000E+00    0    0
  -15    2    4    4    0    0   -0.1137624836E+02    0.2579826736E+02   -0.2865130615E+02    0.4023710632E+02    0.1777029991E+01    0    0
   16    1    6    6    0    0    0.2306668758E+01    0.5442795753E+00    0.2311197519E+01    0.3310376883E+01    0.1884321391E-03    0    0
   11    1    6    6    0    0    0.1283248520E+02    0.3728388548E+00    0.1299511433E+02    0.1826703835E+02    0.5980199785E-03    0    0
  -12    1    6    6    0    0    0.1646678734E+02    0.1368602991E+01    0.1572166252E+02    0.2280786896E+02    0.1495049946E-03    0    0
  -16    1    9    9    0    0   -0.1236098170E+01    0.2728957415E+01   -0.3305259466E+01    0.4460928917E+01    0.6103515625E-04    0    0
   24    2    9    9    0    0   -0.1014059830E+02    0.2307032585E+02   -0.2534717560E+02    0.3577776337E+02    0.1580306530E+01    0    0
  211    1   14   14    0    0   -0.2937906265E+01    0.5950743675E+01   -0.6330064297E+01    0.9172340393E+01    0.1395680159E+00    0    0
  211    1   14   14    0    0   -0.6780285239E+00    0.1609965682E+01   -0.1748534322E+01    0.2475593567E+01    0.1395680159E+00    0    0
  211    1   14   14    0    0   -0.3335965157E+01    0.7327665329E+01   -0.8190899849E+01    0.1148623753E+02    0.1395680606E+00    0    0
 -211    1   14   14    0    0   -0.2410071850E+01    0.6431734562E+01   -0.6834541321E+01    0.9690515518E+01    0.1395680606E+00    0    0
 -211    1   14   14    0    0   -0.7786262631E+00    0.1750216842E+01   -0.2243134975E+01    0.2953074932E+01    0.1395680457E+00    0    0
</event>
<event>
   18 9999    1    0.9119999695E+02    0.7565275169E-02    0.1185000000E+00
   11   -1    0    0    0    0    0.0000000000E+00    0.0000000000E+00    0.8000000000E+02    0.8000000000E+02    0.5109988851E-03    0    0
  -11   -1    0    0    0    0    0.0000000000E+00    0.0000000000E+00   -0.8000000000E+02    0.8000000000E+02    0.5109988851E-03    0    0
  -24    2    1    2    0    0   -0.1286374569E+01   -0.5235872269E+01   -0.2233389616E+01    0.7984648132E+02    0.7963293457E+02    0    0
   24    2    1    2    0    0    0.1286374569E+01    0.5235872269E+01    0.2233389616E+01    0.8015351868E+02    0.7994078827E+02    0    0
   15    2    3    3    0    0    0.3820276260E+02    0.5890365601E+01    0.8476859927E+00    0.3870431137E+02    0.1777029991E+01    0    0
  -16    1    3    3    0    0   -0.3948913574E+02   -0.1112623787E+02   -0.3081075430E+01    0.4114216995E+02    0.0000000000E+00    0    0
   16    1    4    4    0    0    0.3579177856E+02    0.1835986710E+02    0.1190235901E+02    0.4194999695E+02    0.0000000000E+00    0    0
  -15    2    4    4    0    0   -0.3450540161E+02   -0.1312399578E+02   -0.9668969154E+01    0.3820352173E+02    0.1777029991E+01    0    0
   16    1    5    5    0    0    0.5570706367E+01    0.7729890943E+00    0.4547215104E+00    0.5642433167E+01    0.1220703125E-03    0    0
  -24    2    5    5    0    0    0.3263356018E+02    0.5117608547E+01    0.3929978609E+00    0.3306340408E+02    0.1376614094E+01    0    0
 -211    1   10   10    0    0    0.1484242249E+02    0.2522717714E+01    0.2362711430E+00    0.1505778599E+02    0.1395679861E+00    0    0
 -211    1   10   10    0    0    0.3665864706E+01    0.6224824786E+00    0.9750790149E-01    0.3722235203E+01    0.1395681053E+00    0    0
  211    1   10   10    0    0    0.8602614403E+01    0.1350776315E+01    0.2311041057E+00    0.8712201118E+01    0.1395680457E+00    0    0
  111    1   10   10    0    0    0.2691189289E+01    0.3269182444E+00   -0.1924399585E+00    0.2721143961E+01    0.1349641234E+00    0    0
  111    1   10   10    0    0    0.2831468344E+01    0.2947135270E+00    0.2055465803E-01    0.2850036144E+01    0.1349640042E+00    0    0
  -16    1    8    8    0    0   -0.5555951118E+01   -0.1945809603E+01   -0.2047287703E+01    0.6232668400E+01    0.1220703125E-03    0    0
  -11    1    8    8    0    0   -0.2725477600E+02   -0.1028485203E+02   -0.7050899982E+01    0.2997192192E+02    0.5725605297E-03    0    0
   12    1    8    8    0    0   -0.1696034908E+01   -0.8938505650E+00   -0.5711622834E+00    0.2000432253E+01    0.3737624866E-04    0    0
</event>
<event>
   20 9999    1    0.9119999695E+02    0.7565275169E-02    0.1185000000E+00
   11   -1    0    0    0    0    0.0000000000E+00    0.0000000000E+00    0.8000000000E+02    0.8000000000E+02    0.5109988851E-03    0    0
  -11   -1    0    0    0    0    0.0000000000E+00    0.0000000000E+00   -0.8000000000E+02    0.8000000000E+02    0.5109988851E-03    0    0
  -24    2    1    2    0    0   -0.6913823128E+01    0.3066344500E+01   -0.1003809261E+02    0.8254879761E+02    0.8158638000E+02    0    0
   24    2    1    2    0    0    0.6915785789E+01   -0.3067512274E+01    0.8199243546E+01    0.7561235046E+02    0.7478477478E+02    0    0
   22    1    1    2    0    0   -0.1962457085E-02    0.1167907612E-02    0.1838848591E+01    0.1838850021E+01    0.0000000000E+00    0    0
   15    2    3    3    0    0    0.2632961464E+02   -0.2136137581E+02    0.1170938396E+02    0.3591412735E+02    0.1777029991E+01    0    0
  -16    1    3    3    0    0   -0.3324343872E+02    0.2442771912E+02   -0.2174747658E+02    0.4663467026E+02    0.0000000000E+00    0    0
   16    1    4    4    0    0   -0.3252181292E+01   -0.1483442307E+02   -0.3038782883E+02    0.3397141266E+02    0.0000000000E+00    0    0
  -15    2    4    4    0    0    0.1016796684E+02    0.1176691055E+02    0.3858707428E+02    0.4164093781E+02    0.1777029991E+01    0    0
   16    1    6    6    0    0    0.1259591460E+01   -0.8909524679E+00    0.7696416378E+00    0.1724156380E+01    0.4228639591E-03    0    0
  -24    2    6    6    0    0    0.2507106018E+02   -0.2047126389E+02    0.1094020271E+02    0.3419138336E+02    0.1316054463E+01    0    0
  111    1   11   11    0    0    0.6768931389E+01   -0.5346721649E+01    0.3206005335E+01    0.9203398705E+01    0.1349640191E+00    0    0
  111    1   11   11    0    0    0.7410542011E+01   -0.6173702717E+01    0.3087291718E+01    0.1012819481E+02    0.1349629760E+00    0    0
  111    1   11   11    0    0    0.1959235787E+01   -0.1484605432E+01    0.6008794308E+00    0.2534152508E+01    0.1349640340E+00    0    0
 -211    1   11   11    0    0    0.8932353020E+01   -0.7466235638E+01    0.4046027660E+01    0.1232564163E+02    0.1395680308E+00    0    0
  -16    1    9    9    0    0    0.7906905413E+00    0.6905201674E+00    0.1963171959E+01    0.2226219654E+01    0.2589502255E-03    0    0
   24    2    9    9    0    0    0.9377676964E+01    0.1107685375E+02    0.3662541962E+02    0.3941635895E+02    0.1261111736E+01    0    0
  321    1   17   17    0    0    0.4400250912E+01    0.5206611156E+01    0.1661849213E+02    0.1796911240E+02    0.4936669767E+00    0    0
  111    1   17   17    0    0    0.1399343729E+01    0.1791147709E+01    0.5720226765E+01    0.6156751156E+01    0.1349628866E+00    0    0
  310    1   17   17    0    0    0.3578082561E+01    0.4079095840E+01    0.1428670597E+02    0.1529049969E+02    0.4977200329E+00    0    0
</event>
<event>
   19 9999    1    0.9119999695E+02    0.7565275169E-02    0.1185000000E+00
   11   -1    0    0    0    0    0.0000000000E+00    0.0000000000E+00    0.8000000000E+02    0.8000000000E+02    0.5109988851E-03    0    0
  -11   -1    0    0    0    0    0.0000000000E+00    0.0000000000E+00   -0.8000000000E+02    0.8000000000E+02    0.5109988851E-03    0    0
  -24    2    1    2    0    0    0.1129255104E+02    0.1323595333E+02    0.5326547146E+01    0.8255410004E+02    0.8052388000E+02    0    0
   24    2    1    2    0    0   -0.1158536625E+02   -0.1305589104E+02   -0.3532600784E+02    0.4496642685E+02    0.2166507912E+02    0    0
   22    1    1    2    0    0    0.2932399511E+00   -0.1801323444E+00    0.3123851967E+02    0.3124041557E+02    0.0000000000E+00    0    0
   22    1    1    2    0    0   -0.4248515761E-03    0.7051424473E-04   -0.1239058137E+01    0.1239058256E+01    0.0000000000E+00    0    0
   15    2    3    3    0    0    0.2709328651E+02   -0.2068577385E+02   -0.1786805725E+02    0.3852755737E+02    0.1777029991E+01    0    0
  -16    1    3    3    0    0   -0.1580073452E+02    0.3392172623E+02    0.2319460297E+02    0.4402654266E+02    0.0000000000E+00    0    0
   16    1    4    4    0    0    0.4716002464E+01   -0.4043918133E+01   -0.1948111153E+02    0.2044768143E+02    0.0000000000E+00    0    0
  -15    2    4    4    0    0   -0.1630136871E+02   -0.9011972427E+01   -0.1584489727E+02    0.2451874542E+02    0.1777029991E+01    0    0
   16    1    7    7    0    0    0.3262111187E+01   -0.2970578432E+01   -0.2476603508E+01    0.5059572220E+01    0.1525878906E-03    0    0
  -24    2    7    7    0    0    0.2383224106E+02   -0.1771601105E+02   -0.1539215660E+02    0.3346950150E+02    0.1206788301E+01    0    0
 -321    1   12   12    0    0    0.1232745266E+02   -0.9386323929E+01   -0.8359636307E+01    0.1761239243E+02    0.4936669767E+00    0    0
  130    1   12   12    0    0    0.1150478840E+02   -0.8329686165E+01   -0.7032519817E+01    0.1585710907E+02    0.4977199435E+00    0    0
  -16    1   10   10    0    0   -0.3554949284E+01   -0.2122387409E+01   -0.2893041611E+01    0.5050929070E+01    0.3860202269E-03    0    0
   24    2   10   10    0    0   -0.1274706173E+02   -0.6889940739E+01   -0.1295248032E+02    0.1946878242E+02    0.1143634915E+01    0    0
  211    1   16   16    0    0   -0.8051988482E+00   -0.5950526595E+00   -0.8210095763E+00    0.1302293658E+01    0.1395680159E+00    0    0
  111    1   16   16    0    0   -0.1976663232E+01   -0.9590504169E+00   -0.1649411321E+01    0.2750590563E+01    0.1349640936E+00    0    0
   22    1   16   16    0    0   -0.9965198517E+01   -0.5335836411E+01   -0.1048205757E+02    0.1541589642E+02    0.1726334885E-03    0    0
</event>
<event>
   21 9999    1    0.9119999695E+02    0.7565275169E-02    0.1185000000E+00
   11   -1    0    0    0    0    0.0000000000E+00    0.0000000000E+00    0.8000000000E+02    0.8000000000E+02    0.5109988851E-03    0    0
  -11   -1    0    0    0    0    0.0000000000E+00    0.0000000000E+00   -0.8000000000E+02    0.8000000000E+02    0.5109988851E-03    0    0
  -24    2    1    2    0    0    0.6665952206E+01   -0.7601154327E+01    0.2181420088E+01    0.8061515808E+02    0.7994893646E+02    0    0
   24    2    1    2    0    0   -0.7726383686E+01    0.5249162197E+01   -0.6143557072E+01    0.7445946503E+02    0.7361534119E+02    0    0
   22    1    1    2    0    0    0.1258984327E+01    0.2244084358E+01    0.3073279381E+01    0.4008241653E+01    0.0000000000E+00    0    0
   22    1    1    2    0    0   -0.1985528767E+00    0.1079075634E+00    0.8888574839E+00    0.9171341062E+00    0.0000000000E+00    0    0
   15    2    3    3    0    0   -0.1266526413E+02    0.3266299438E+02    0.6738595486E+01    0.3571899414E+02    0.1777029991E+01    0    0
  -16    1    3    3    0    0    0.1933121681E+02   -0.4026414871E+02   -0.4557175636E+01    0.4489616013E+02    0.0000000000E+00    0    0
   16    1    4    4    0    0    0.2818223000E+02    0.1981499290E+02    0.3075183868E+01    0.3458798599E+02    0.0000000000E+00    0    0
  -15    2    4    4    0    0   -0.3590861511E+02   -0.1456583118E+02   -0.9218740463E+01    0.3987148285E+02    0.1777029991E+01    0    0
   16    1    7    7    0    0   -0.2461302757E+01    0.6364803791E+01    0.1472185612E+01    0.6981122494E+01    0.5390478764E-03    0    0
  -24    2    7    7    0    0   -0.1020446014E+02    0.2629947472E+02    0.5266674995E+01    0.2873927689E+02    0.1553972125E+01    0    0
 -211    1   12   12    0    0   -0.5273942471E+01    0.1278069592E+02    0.3043067932E+01    0.1415769768E+02    0.1395683885E+00    0    0
 -211    1   12   12    0    0   -0.1591745496E+01    0.4926692009E+01    0.6414577365E+00    0.5218897820E+01    0.1395680159E+00    0    0
  211    1   12   12    0    0   -0.1611691117E+01    0.4524347782E+01    0.9190818667E+00    0.4891979218E+01    0.1395679712E+00    0    0
  111    1   12   12    0    0   -0.1727080584E+01    0.4067738533E+01    0.6630675197E+00    0.4470702171E+01    0.1349639744E+00    0    0
  -16    1   10   10    0    0   -0.6023971081E+01   -0.1971150637E+01   -0.1620839357E+01    0.6542230606E+01    0.3979005269E-03    0    0
   24    2   10   10    0    0   -0.2988605499E+02   -0.1259525299E+02   -0.7598263741E+01    0.3333081818E+02    0.1180318356E+01    0    0
  211    1   18   18    0    0   -0.3725548506E+01   -0.1355830312E+01   -0.9584345818E+00    0.4081183910E+01    0.1395679712E+00    0    0
  130    1   18   18    0    0   -0.1000700855E+02   -0.4161062717E+01   -0.2482837677E+01    0.1112954998E+02    0.4977200329E+00    0    0
  111    1   18   18    0    0   -0.1615349770E+02   -0.7078360081E+01   -0.4156991482E+01    0.1812008286E+02    0.1349638700E+00    0    0
</event>
<event>
   20 9999    1    0.9119999695E+02    0.7565275169E-02    0.1185000000E+00
   11   -1    0    0    0    0    0.0000000000E+00    0.0000000000E+00    0.8000000000E+02    0.8000000000E+02    0.5109988851E-03    0    0
  -11   -1    0    0    0    0    0.0000000000E+00    0.0000000000E+00   -0.8000000000E+02    0.8000000000E+02    0.5109988851E-03    0    0
  -24    2    1    2    0    0   -0.3401509285E+01   -0.2185262108E+02    0.7495515823E+01    0.7504515839E+02    0.7131960297E+02    0    0
   24    2    1    2    0    0    0.3401516914E+01    0.2185260010E+02   -0.7495375156E+01    0.8495470428E+02    0.8168239594E+02    0    0
   22    1    1    2    0    0   -0.7553112027E-05    0.2040083382E-04   -0.1406706433E-03    0.1423428039E-03    0.0000000000E+00    0    0
   15    2    3    3    0    0    0.2975818443E+02   -0.1277626801E+02    0.2040884972E+02    0.3832051086E+02    0.1777029991E+01    0    0
  -16    1    3    3    0    0   -0.3315969467E+02   -0.9076353073E+01   -0.1291333389E+02    0.3672464752E+02    0.0000000000E+00    0    0
   16    1    4    4    0    0    0.2045522881E+02    0.3087317276E+02    0.2669751930E+02    0.4565442657E+02    0.0000000000E+00    0    0
  -15    2    4    4    0    0   -0.1705371094E+02   -0.9020571709E+01   -0.3419289398E+02    0.3930027390E+02    0.1777029991E+01    0    0
   16    1    6    6    0    0    0.1282737541E+02   -0.6201272964E+01    0.8779459953E+01    0.1673547935E+02    0.1875031448E-03    0    0
   11    1    6    6    0    0    0.4143205643E+01   -0.1406709790E+01    0.3197351456E+01    0.5419228554E+01    0.4567452997E-03    0    0
  -12    1    6    6    0    0    0.1278877354E+02   -0.5168788433E+01    0.8432841301E+01    0.1616731071E+02    0.8631674427E-04    0    0
  -16    1    9    9    0    0   -0.2300865889E+01   -0.1047181368E+01   -0.4505487919E+01    0.5166235924E+01    0.2642899744E-04    0    0
   24    2    9    9    0    0   -0.1475351715E+02   -0.7973745346E+01   -0.2968875313E+02    0.3413558960E+02    0.1602925062E+01    0    0
  211    1   14   14    0    0   -0.1794641376E+01   -0.9021431208E+00   -0.4269186974E+01    0.4720173359E+01    0.1395679563E+00    0    0
  211    1   14   14    0    0   -0.2073156118E+01   -0.1084667921E+01   -0.4265285492E+01    0.4866889954E+01    0.1395679861E+00    0    0
  211    1   14   14    0    0   -0.7031576633E+01   -0.3884044170E+01   -0.1370166397E+02    0.1588344955E+02    0.1395679861E+00    0    0
 -211    1   14   14    0    0   -0.8335030675E+00   -0.4103587866E+00   -0.1657207251E+01    0.1904976845E+01    0.1395680010E+00    0    0
 -211    1   14   14    0    0   -0.1802762866E+01   -0.9901068807E+00   -0.3638040781E+01    0.4181517124E+01    0.1395680010E+00    0    0
  111    1   14   14    0    0   -0.1217877030E+01   -0.7024246454E+00   -0.2157368660E+01    0.2578581095E+01    0.1349640042E+00    0    0
</event>
<event>
   26 9999    1    0.9119999695E+02    0.7565275169E-02    0.1185000000E+00
   11   -1    0    0    0    0    0.0000000000E+00    0.0000000000E+00    0.8000000000E+02    0.8000000000E+02    0.5109988851E-03    0    0
  -11   -1    0    0    0    0    0.0000000000E+00    0.0000000000E+00   -0.8000000000E+02    0.8000000000E+02    0.5109988851E-03    0    0
  -24    2    1    2    0    0    0.6972119808E+01    0.7057228565E+01   -0.1770617068E+00    0.7872655487E+02    0.7809881592E+02    0    0
   24    2    1    2    0    0   -0.6961585045E+01   -0.7094774723E+01    0.2258228362E+00    0.8114341736E+02    0.8053200531E+02    0    0
   22    1    1    2    0    0   -0.1053382643E-01    0.3754636273E-01   -0.4289621860E-01    0.5797220021E-01    0.0000000000E+00    0    0
   22    1    1    2    0    0   -0.7463158909E-06    0.5325671850E-06   -0.3895957768E-01    0.3895957768E-01    0.0000000000E+00    0    0
   22    1    1    2    0    0    0.1683055473E-06   -0.1026622044E-05    0.3309466317E-01    0.3309466317E-01    0.0000000000E+00    0    0
   15    2    3    3    0    0   -0.5125570774E+01   -0.2666491508E+02   -0.2351936913E+02    0.3596675873E+02    0.1777029991E+01    0    0
  -16    1    3    3    0    0    0.1209769058E+02    0.3372214508E+02    0.2334230804E+02    0.4275979996E+02    0.0000000000E+00    0    0
   16    1    4    4    0    0   -0.1907627296E+02   -0.3940081024E+02    0.1065708828E+02    0.4505443192E+02    0.0000000000E+00    0    0
  -15    2    4    4    0    0    0.1211468887E+02    0.3230603790E+02   -0.1043126488E+02    0.3608898544E+02    0.1777029991E+01    0    0
   16    1    8    8    0    0   -0.3450922072E+00   -0.2416969776E+01   -0.2043518305E+01    0.3183833838E+01    0.4825252836E-04    0    0
  -24    2    8    8    0    0   -0.4780680656E+01   -0.2424899483E+02   -0.2147677612E+02    0.3278433990E+02    0.1640850544E+01    0    0
 -211    1   13   13    0    0   -0.1293393373E+01   -0.4996444702E+01   -0.4307784557E+01    0.6724122047E+01    0.1395680010E+00    0    0
 -211    1   13   13    0    0   -0.2352396011E+01   -0.1109171200E+02   -0.9745496750E+01    0.1495172310E+02    0.1395679265E+00    0    0
 -211    1   13   13    0    0   -0.2404531538E+00   -0.1440957427E+01   -0.1382372379E+01    0.2016087532E+01    0.1395680010E+00    0    0
  211    1   13   13    0    0   -0.1744210422E+00   -0.2558829308E+01   -0.2379757166E+01    0.3501535892E+01    0.1395678818E+00    0    0
  211    1   13   13    0    0   -0.7200169563E+00   -0.4161051273E+01   -0.3661365747E+01    0.5590872288E+01    0.1395680010E+00    0    0
  -16    1   11   11    0    0    0.2129795790E+01    0.5791286469E+01   -0.1832968354E+01    0.6436986923E+01    0.3578503311E-04    0    0
   24    2   11   11    0    0    0.9985369682E+01    0.2651602173E+02   -0.8598707199E+01    0.2965341759E+02    0.1606367946E+01    0    0
  211    1   20   20    0    0    0.6807931066E+00    0.2190691233E+01   -0.5435488820E+00    0.2361680031E+01    0.1395678967E+00    0    0
  211    1   20   20    0    0    0.2133234978E+01    0.5380391121E+01   -0.1585698843E+01    0.6002767563E+01    0.1395679563E+00    0    0
  211    1   20   20    0    0    0.2340819597E+01    0.5845977306E+01   -0.2387472868E+01    0.6736051083E+01    0.1395676881E+00    0    0
 -211    1   20   20    0    0    0.6853166819E+00    0.2011075258E+01   -0.6881814003E+00    0.2237667322E+01    0.1395679861E+00    0    0
 -211    1   20   20    0    0    0.4095776558E+01    0.1095772648E+02   -0.3360745668E+01    0.1217214966E+02    0.1395679265E+00    0    0
   22    1   20   20    0    0    0.4942347109E-01    0.1301463395E+00   -0.3305516765E-01    0.1430852562E+00    0.0000000000E+00    0    0
</event>
<event>
   20 9999    1    0.9119999695E+02    0.7565275169E-02    0.1185000000E+00
   11   -1    0    0    0    0    0.0000000000E+00    0.0000000000E+00    0.8000000000E+02    0.8000000000E+02    0.5109988851E-03    0    0
  -11   -1    0    0    0    0    0.0000000000E+00    0.0000000000E+00   -0.8000000000E+02    0.8000000000E+02    0.5109988851E-03    0    0
  -24    2    1    2    0    0   -0.1174203587E+02   -0.1471524620E+02    0.1878798485E+02    0.7721495819E+02    0.7248963928E+02    0    0
   24    2    1    2    0    0    0.1174117851E+02    0.1471525288E+02   -0.1879157066E+02    0.8278134918E+02    0.7839154816E+02    0    0
   22    1    1    2    0    0    0.8445921703E-03   -0.6942117579E-05    0.3367082216E-02    0.3471401287E-02    0.0000000000E+00    0    0
   22    1    1    2    0    0    0.1342622454E-04    0.6331691225E-06    0.2175884583E-03    0.2180032170E-03    0.0000000000E+00    0    0
   15    2    3    3    0    0   -0.1204963112E+02    0.1647868633E+01    0.4481506729E+02    0.4646995926E+02    0.1777029991E+01    0    0
  -16    1    3    3    0    0    0.3075944781E+00   -0.1636311531E+02   -0.2602708054E+02    0.3074500084E+02    0.0000000000E+00    0    0
   16    1    4    4    0    0   -0.1183686161E+02    0.8596197128E+01    0.2709933472E+02    0.3079577637E+02    0.0000000000E+00    0    0
  -15    2    4    4    0    0    0.2357804108E+02    0.6119055271E+01   -0.4589090729E+02    0.5198557281E+02    0.1777029991E+01    0    0
   16    1    7    7    0    0   -0.4302461445E+00    0.6418646127E-01    0.2573657990E+01    0.2610162258E+01    0.4844515352E-03    0    0
  -24    2    7    7    0    0   -0.1161985874E+02    0.1583747029E+01    0.4224317169E+02    0.4386162567E+02    0.1351748466E+01    0    0
 -321    1   12   12    0    0   -0.7784691334E+01    0.8540123701E+00    0.2822478676E+02    0.2929527283E+02    0.4936670661E+00    0    0
 -211    1   12   12    0    0   -0.3084292889E+01    0.6215213537E+00    0.1197519684E+02    0.1238240528E+02    0.1395681202E+00    0    0
  211    1   12   12    0    0   -0.7508736849E+00    0.1082131863E+00    0.2043185949E+01    0.2183943510E+01    0.1395680308E+00    0    0
  -16    1   10   10    0    0    0.5105245113E+01    0.1456699133E+01   -0.9633170128E+01    0.1099924850E+02    0.3156762687E-03    0    0
   24    2   10   10    0    0    0.1847372246E+02    0.4662597179E+01   -0.3625954056E+02    0.4098836899E+02    0.1507966518E+01    0    0
  211    1   17   17    0    0    0.1194382954E+02    0.2861297846E+01   -0.2395193672E+02    0.2691759300E+02    0.1395677477E+00    0    0
  111    1   17   17    0    0    0.1907692552E+01    0.2583318651E+00   -0.3056455374E+01    0.3614714384E+01    0.1349642873E+00    0    0
   22    1   17   17    0    0    0.4622200966E+01    0.1542967200E+01   -0.9251149178E+01    0.1045606327E+02    0.0000000000E+00    0    0
</event>
<event>
   18 9999    1    0.9119999695E+02    0.7565275169E-02    0.1185000000E+00
   11   -1    0    0    0    0    0.0000000000E+00    0.0000000000E+00    0.8000000000E+02    0.8000000000E+02    0.5109988851E-03    0    0
  -11   -1    0    0    0    0    0.0000000000E+00    0.0000000000E+00   -0.8000000000E+02    0.8000000000E+02    0.5109988851E-03    0    0
  -24    2    1    2    0    0    0.9646627426E+01   -0.1586350536E+02    0.6288147449E+01    0.8228517151E+02    0.7991620636E+02    0    0
   24    2    1    2    0    0   -0.9646537781E+01    0.1586348152E+02   -0.6305158615E+01    0.7769782257E+02    0.7518304443E+02    0    0
   22    1    1    2    0    0   -0.2125881480E-06   -0.6630286293E-06    0.9872354567E-02    0.9872354567E-02    0.0000000000E+00    0    0
   22    1    1    2    0    0   -0.8921745030E-04    0.2457853407E-04    0.7138608955E-02    0.7139208727E-02    0.0000000000E+00    0    0
   15    2    3    3    0    0    0.3903388739E+01   -0.4168700409E+02    0.2597953606E+02    0.4930656052E+02    0.1777029991E+01    0    0
  -16    1    3    3    0    0    0.5743238449E+01    0.2582349777E+02   -0.1969138908E+02    0.3297860718E+02    0.0000000000E+00    0    0
   16    1    4    4    0    0   -0.1826139832E+02    0.3352311325E+02    0.2134047127E+02    0.4373435211E+02    0.0000000000E+00    0    0
  -15    2    4    4    0    0    0.8614861488E+01   -0.1765963364E+02   -0.2764562988E+02    0.3396346664E+02    0.1777029991E+01    0    0
   16    1    7    7    0    0    0.7050210834E+00   -0.1280876827E+02    0.7901873112E+01    0.1506655884E+02    0.5709316247E-04    0    0
  -24    2    7    7    0    0    0.3198521376E+01   -0.2887987709E+02    0.1807868767E+02    0.3424194336E+02    0.1180640340E+01    0    0
 -211    1   12   12    0    0    0.1355329633E+01   -0.1345854855E+02    0.8203914642E+01    0.1582065582E+02    0.1395679712E+00    0    0
  111    1   12   12    0    0    0.8904532194E+00   -0.7394376755E+01    0.4285620689E+01    0.8593862534E+01    0.1349640936E+00    0    0
   22    1   12   12    0    0    0.9527384043E+00   -0.8026948929E+01    0.5589150906E+01    0.9827422142E+01    0.0000000000E+00    0    0
  -16    1   10   10    0    0    0.4207852840E+01   -0.9779294968E+01   -0.1598604870E+02    0.1920662308E+02    0.0000000000E+00    0    0
  -13    1   10   10    0    0    0.4086283684E+01   -0.7337367058E+01   -0.1105008030E+02    0.1387984562E+02    0.1056587473E+00    0    0
   14    1   10   10    0    0    0.3210642338E+00   -0.5436655879E+00   -0.6105880141E+00    0.8783348799E+00    0.1294751128E-03    0    0
</event>
<event>
   15 9999    1    0.9119999695E+02    0.7565275169E-02    0.1185000000E+00
   11   -1    0    0    0    0    0.0000000000E+00    0.0000000000E+00    0.8000000000E+02    0.8000000000E+02    0.5109988851E-03    0    0
  -11   -1    0    0    0    0    0.0000000000E+00    0.0000000000E+00   -0.8000000000E+02    0.8000000000E+02    0.5109988851E-03    0    0
  -24    2    1    2    0    0    0.1532243538E+02    0.1080094528E+02    0.1027698708E+02    0.7743589020E+02    0.7442622375E+02    0    0
   24    2    1    2    0    0   -0.1532243443E+02   -0.1080094528E+02   -0.1027698612E+02    0.8256410980E+02    0.7974822235E+02    0    0
   15    2    3    3    0    0    0.4323170853E+02   -0.2614728928E+01    0.1549446678E+02    0.4603318024E+02    0.1777029991E+01    0    0
  -16    1    3    3    0    0   -0.2790927315E+02    0.1341567421E+02   -0.5217479706E+01    0.3140270615E+02    0.0000000000E+00    0    0
   16    1    4    4    0    0    0.1218905449E+02    0.3909285784E+01    0.2939642525E+02    0.3206252289E+02    0.0000000000E+00    0    0
  -15    2    4    4    0    0   -0.2751148796E+02   -0.1471023083E+02   -0.3967341232E+02    0.5050158691E+02    0.1777029991E+01    0    0
   16    1    5    5    0    0    0.3451764297E+02   -0.2708575249E+01    0.1266611099E+02    0.3686779404E+02    0.2660460887E-03    0    0
   13    1    5    5    0    0    0.3183313847E+01    0.1148030758E+00    0.1008614421E+01    0.3342922926E+01    0.1056590378E+00    0    0
  -14    1    5    5    0    0    0.5532455444E+01   -0.2105966024E-01    0.1820351243E+01    0.5824275494E+01    0.1495049946E-03    0    0
  -16    1    8    8    0    0   -0.1232578754E+02   -0.6246668816E+01   -0.1774713707E+02    0.2249237251E+02    0.1398491149E-03    0    0
   24    2    8    8    0    0   -0.1518678474E+02   -0.8464141846E+01   -0.2192783546E+02    0.2801120377E+02    0.1231840014E+01    0    0
  321    1   13   13    0    0   -0.8882418633E+01   -0.4564702034E+01   -0.1275232887E+02    0.1620491982E+02    0.4936669767E+00    0    0
  130    1   13   13    0    0   -0.6304368019E+01   -0.3899440527E+01   -0.9175510406E+01    0.1180628681E+02    0.4977200925E+00    0    0
</event>
<event>
   21 9999    1    0.9119999695E+02    0.7565275169E-02    0.1185000000E+00
   11   -1    0    0    0    0    0.0000000000E+00    0.0000000000E+00    0.8000000000E+02    0.8000000000E+02    0.5109988851E-03    0    0
  -11   -1    0    0    0    0    0.0000000000E+00    0.0000000000E+00   -0.8000000000E+02    0.8000000000E+02    0.5109988851E-03    0    0
  -24    2    1    2    0    0   -0.1025160074E+01   -0.9950668216E+00   -0.4452725410E+01    0.8071326447E+02    0.8057768250E+02    0    0
   24    2    1    2    0    0    0.1025160074E+01    0.9950668216E+00    0.4452725410E+01    0.7928673553E+02    0.7914871216E+02    0    0
   15    2    3    3    0    0    0.3102062607E+02    0.9437094688E+01    0.2083278847E+02    0.3858109665E+02    0.1777029991E+01    0    0
  -16    1    3    3    0    0   -0.3204578781E+02   -0.1043216133E+02   -0.2528551483E+02    0.4213216782E+02    0.0000000000E+00    0    0
   16    1    4    4    0    0    0.1867451096E+02   -0.2295265579E+02    0.2843174553E+02    0.4103566742E+02    0.0000000000E+00    0    0
  -15    2    4    4    0    0   -0.1764935112E+02    0.2394772148E+02   -0.2397902107E+02    0.3825106812E+02    0.1777029991E+01    0    0
   16    1    5    5    0    0    0.9520755768E+01    0.2778214931E+01    0.6339716434E+01    0.1177095032E+02    0.3959942260E-03    0    0
  -24    2    5    5    0    0    0.2150109291E+02    0.6659251690E+01    0.1449389267E+02    0.2681166458E+02    0.1466231465E+01    0    0
 -321    1   10   10    0    0    0.1163206577E+02    0.3415107012E+01    0.7821115494E+01    0.1443542385E+02    0.4936670661E+00    0    0
  111    1   10   10    0    0    0.3675721645E+01    0.1459781528E+01    0.2639438391E+01    0.4756757259E+01    0.1349641979E+00    0    0
  130    1   10   10    0    0    0.6193300247E+01    0.1784361839E+01    0.4033335686E+01    0.7619477749E+01    0.4977199435E+00    0    0
  -16    1    8    8    0    0   -0.1759958148E+01    0.2385053873E+01   -0.2358427048E+01    0.3787890196E+01    0.1321449872E-04    0    0
   24    2    8    8    0    0   -0.1589008713E+02    0.2156361008E+02   -0.2162153625E+02    0.3446468353E+02    0.1685041189E+01    0    0
  211    1   15   15    0    0   -0.1889272094E+01    0.2807903290E+01   -0.2412435770E+01    0.4158484936E+01    0.1395678818E+00    0    0
  211    1   15   15    0    0   -0.6785069466E+01    0.9405529976E+01   -0.9443207741E+01    0.1495643044E+02    0.1395678371E+00    0    0
 -211    1   15   15    0    0   -0.3829786777E+00    0.5184454322E+00   -0.4992794394E+00    0.8271744251E+00    0.1395679563E+00    0    0
  111    1   15   15    0    0   -0.1968779206E+01    0.2759858847E+01   -0.2899250746E+01    0.4462822437E+01    0.1349639893E+00    0    0
  111    1   15   15    0    0   -0.2135598898E+01    0.2490000963E+01   -0.2637734652E+01    0.4211501598E+01    0.1349639744E+00    0    0
  111    1   15   15    0    0   -0.2728388309E+01    0.3581871986E+01   -0.3729627848E+01    0.5848268986E+01    0.1349639744E+00    0    0
</event>
<event>
   21 9999    1    0.9119999695E+02    0.7565275169E-02    0.1185000000E+00
   11   -1    0    0    0    0    0.0000000000E+00    0.0000000000E+00    0.8000000000E+02    0.8000000000E+02    0.5109988851E-03    0    0
  -11   -1    0    0    0    0    0.0000000000E+00    0.0000000000E+00   -0.8000000000E+02    0.8000000000E+02    0.5109988851E-03    0    0
  -24    2    1    2    0    0    0.1672959518E+02    0.2656986713E+01   -0.2347007990E+01    0.8224631500E+02    0.8044879913E+02    0    0
   24    2    1    2    0    0   -0.1672954369E+02   -0.2656969786E+01    0.2379184246E+01    0.7772150421E+02    0.7581579590E+02    0    0
   22    1    1    2    0    0   -0.5321119534E-04   -0.1707558295E-04   -0.3217605129E-01    0.3217609972E-01    0.0000000000E+00    0    0
   15    2    3    3    0    0    0.4525155640E+02   -0.1374327660E+02   -0.1021935749E+02    0.4841667175E+02    0.1777029991E+01    0    0
  -16    1    3    3    0    0   -0.2852196121E+02    0.1640026283E+02    0.7872349739E+01    0.3382964325E+02    0.0000000000E+00    0    0
   16    1    4    4    0    0   -0.2197830439E+01   -0.1828211212E+02    0.3450680161E+02    0.3911247253E+02    0.0000000000E+00    0    0
  -15    2    4    4    0    0   -0.1453171253E+02    0.1562514210E+02   -0.3212761688E+02    0.3860903168E+02    0.1777029991E+01    0    0
   16    1    6    6    0    0    0.4605856538E+00   -0.2253617197E+00   -0.3084774315E-01    0.5136911273E+00    0.2625221387E-03    0    0
  -24    2    6    6    0    0    0.4479275513E+02   -0.1351845551E+02   -0.1018891239E+02    0.4790488815E+02    0.1387424827E+01    0    0
 -211    1   11   11    0    0    0.2173868370E+02   -0.6500373840E+01   -0.5363591671E+01    0.2331550598E+02    0.1395677924E+00    0    0
  310    1   11   11    0    0    0.1125209236E+02   -0.3460139513E+01   -0.2486422300E+01    0.1204209995E+02    0.4977201521E+00    0    0
  111    1   11   11    0    0    0.1180197239E+02   -0.3557940722E+01   -0.2338896751E+01    0.1254727650E+02    0.1349640638E+00    0    0
  -16    1    9    9    0    0   -0.1468061805E+01    0.1686270833E+01   -0.3157227516E+01    0.3868694782E+01    0.2553283703E-03    0    0
   24    2    9    9    0    0   -0.1306422234E+02    0.1393948650E+02   -0.2897165680E+02    0.3474185944E+02    0.1629930258E+01    0    0
  211    1   16   16    0    0   -0.5674861431E+01    0.6061347008E+01   -0.1234289265E+02    0.1487650681E+02    0.1395679116E+00    0    0
  211    1   16   16    0    0   -0.7975937128E+00    0.7408253551E+00   -0.1643926740E+01    0.1976601243E+01    0.1395680755E+00    0    0
 -211    1   16   16    0    0   -0.2000605822E+01    0.1988455653E+01   -0.4131313801E+01    0.5004359245E+01    0.1395679861E+00    0    0
  111    1   16   16    0    0   -0.1318640351E+01    0.1505554795E+01   -0.3791446447E+01    0.4289381027E+01    0.1349640638E+00    0    0
  111    1   16   16    0    0   -0.3272522449E+01    0.3643305063E+01   -0.7062078953E+01    0.8595012665E+01    0.1349639744E+00    0    0
</event>
<event>
   17 9999    1    0.9119999695E+02    0.7565275169E-02    0.1185000000E+00
   11   -1    0    0    0    0    0.0000000000E+00    0.0000000000E+00    0.8000000000E+02    0.8000000000E+02    0.5109988851E-03    0    0
  -11   -1    0    0    0    0    0.0000000000E+00    0.0000000000E+00   -0.8000000000E+02    0.8000000000E+02    0.5109988851E-03    0    0
  -24    2    1    2    0    0    0.1742467880E+02    0.1022411156E+02    0.2253960371E+01    0.8244816589E+02    0.7990287018E+02    0    0
   24    2    1    2    0    0   -0.1742485809E+02   -0.1022401905E+02   -0.2251311064E+01    0.7754917145E+02    0.7483748627E+02    0    0
   22    1    1    2    0    0    0.1790620445E-03   -0.9251984011E-04   -0.2649361268E-02    0.2657016739E-02    0.0000000000E+00    0    0
   15    2    3    3    0    0   -0.1931921959E+02   -0.2422562981E+02   -0.5398196697E+01    0.3150256729E+02    0.1777029991E+01    0    0
  -16    1    3    3    0    0    0.3674390030E+02    0.3444974136E+02    0.7652157307E+01    0.5094560242E+02    0.0000000000E+00    0    0
   16    1    4    4    0    0   -0.2659006882E+02   -0.3768550873E+02    0.7950866222E+01    0.4680219650E+02    0.0000000000E+00    0    0
  -15    2    4    4    0    0    0.9165210724E+01    0.2746148872E+02   -0.1020217705E+02    0.3074697876E+02    0.1777029991E+01    0    0
   16    1    6    6    0    0   -0.4049180984E+01   -0.4997206211E+01   -0.1345876455E+01    0.6571097374E+01    0.5424923147E-03    0    0
  -24    2    6    6    0    0   -0.1527079868E+02   -0.1922937775E+02   -0.4052532673E+01    0.2493270874E+02    0.1500252008E+01    0    0
  221    1   11   11    0    0   -0.1037489319E+02   -0.1292722893E+02   -0.2642582178E+01    0.1679393005E+02    0.5487998724E+00    0    0
 -211    1   11   11    0    0   -0.2359393597E+01   -0.2554398060E+01   -0.7950413227E+00    0.3569770098E+01    0.1395679116E+00    0    0
  111    1   11   11    0    0   -0.2536511660E+01   -0.3747749329E+01   -0.6149089336E+00    0.4569009304E+01    0.1349639446E+00    0    0
  -16    1    9    9    0    0    0.5661303997E+01    0.1621087837E+02   -0.5737853527E+01    0.1810430527E+02    0.8631674427E-04    0    0
  -13    1    9    9    0    0    0.1587849379E+01    0.6464569092E+01   -0.2834527254E+01    0.7235857487E+01    0.1056585386E+00    0    0
   14    1    9    9    0    0    0.1916418314E+01    0.4787123203E+01   -0.1630198479E+01    0.5408026695E+01    0.8631674427E-04    0    0
</event>
<event>
   19 9999    1    0.9119999695E+02    0.7565275169E-02    0.1185000000E+00
   11   -1    0    0    0    0    0.0000000000E+00    0.0000000000E+00    0.8000000000E+02    0.8000000000E+02    0.5109988851E-03    0    0
  -11   -1    0    0    0    0    0.0000000000E+00    0.0000000000E+00   -0.8000000000E+02    0.8000000000E+02    0.5109988851E-03    0    0
  -24    2    1    2    0    0    0.2379739285E+01    0.1431248569E+02    0.2688054276E+02    0.7426226807E+02    0.6768907166E+02    0    0
   24    2    1    2    0    0   -0.2379739523E+01   -0.1431248569E+02   -0.2688046074E+02    0.8573764801E+02    0.8011164093E+02    0    0
   22    1    1    2    0    0    0.3294765349E-07    0.1209945832E-07   -0.8250110841E-04    0.8250111568E-04    0.0000000000E+00    0    0
   15    2    3    3    0    0   -0.1181060433E+01    0.2927060890E+02    0.4295131683E+02    0.5202054214E+02    0.1777029991E+01    0    0
  -16    1    3    3    0    0    0.3560799837E+01   -0.1495812321E+02   -0.1607077217E+02    0.2224172783E+02    0.0000000000E+00    0    0
   16    1    4    4    0    0    0.3191874695E+02   -0.1311143780E+02    0.9400907516E+01    0.3576441193E+02    0.0000000000E+00    0    0
  -15    2    4    4    0    0   -0.3429848480E+02   -0.1201048136E+01   -0.3628136826E+02    0.4997323608E+02    0.1777029991E+01    0    0
   16    1    6    6    0    0   -0.6342828870E+00    0.6795876503E+01    0.1020174122E+02    0.1227443504E+02    0.4516189219E-03    0    0
  -24    2    6    6    0    0   -0.5468239784E+00    0.2247588539E+02    0.3275126648E+02    0.3974815369E+02    0.1343862891E+01    0    0
 -321    1   11   11    0    0   -0.2714252099E-01    0.7071125984E+01    0.1017920971E+02    0.1240409470E+02    0.4936671257E+00    0    0
 -211    1   11   11    0    0    0.9723583609E-01    0.4517522812E+01    0.6233692169E+01    0.7700380802E+01    0.1395679265E+00    0    0
  211    1   11   11    0    0   -0.6169172525E+00    0.1088723469E+02    0.1633836174E+02    0.1964367676E+02    0.1395680457E+00    0    0
  -16    1    9    9    0    0   -0.2531155348E+01   -0.4483341053E-01   -0.2432653904E+01    0.3510920525E+01    0.7598815719E-03    0    0
   24    2    9    9    0    0   -0.3176867867E+02   -0.1156261921E+01   -0.3385013962E+02    0.4646427917E+02    0.1584695220E+01    0    0
  211    1   16   16    0    0   -0.2093233299E+02   -0.4209786952E+00   -0.2202211189E+02    0.3038638878E+02    0.1395685822E+00    0    0
  111    1   16   16    0    0   -0.6316271782E+01   -0.1925423294E+00   -0.6429634094E+01    0.9016139984E+01    0.1349640340E+00    0    0
   22    1   16   16    0    0   -0.4520072937E+01   -0.5427409410E+00   -0.5398394585E+01    0.7061748505E+01    0.1220703125E-03    0    0
</event>
<event>
   16 9999    1    0.9119999695E+02    0.7565275169E-02    0.1185000000E+00
   11   -1    0    0    0    0    0.0000000000E+00    0.0000000000E+00    0.8000000000E+02    0.8000000000E+02    0.5109988851E-03    0    0
  -11   -1    0    0    0    0    0.0000000000E+00    0.0000000000E+00   -0.8000000000E+02    0.8000000000E+02    0.5109988851E-03    0    0
  -24    2    1    2    0    0   -0.1871985626E+02    0.1955421329E+01   -0.3830780745E+01    0.7731150055E+02    0.7488749695E+02    0    0
   24    2    1    2    0    0    0.1871985626E+02   -0.1955421329E+01    0.3830780745E+01    0.8268849945E+02    0.8042671204E+02    0    0
   15    2    3    3    0    0   -0.2107866049E+01   -0.3558367538E+02   -0.6057274342E+01    0.3620068359E+02    0.1777029991E+01    0    0
  -16    1    3    3    0    0   -0.1661198997E+02    0.3753909683E+02    0.2226493835E+01    0.4111081696E+02    0.0000000000E+00    0    0
   16    1    4    4    0    0    0.3814628363E+01   -0.3330089951E+02    0.2516012001E+02    0.4191101074E+02    0.0000000000E+00    0    0
  -15    2    4    4    0    0    0.1490522671E+02    0.3134547806E+02   -0.2132933998E+02    0.4077748489E+02    0.1777029991E+01    0    0
   16    1    5    5    0    0   -0.8996444345E+00   -0.1174803543E+02   -0.1782438159E+01    0.1191649246E+02    0.1220703125E-03    0    0
  -24    2    5    5    0    0   -0.1208304644E+01   -0.2383703995E+02   -0.4275074482E+01    0.2428561592E+02    0.1360286593E+01    0    0
 -321    1   10   10    0    0   -0.3569287658E+00   -0.4185037613E+01   -0.6962376833E+00    0.4286069393E+01    0.4936670661E+00    0    0
  130    1   10   10    0    0   -0.8513760567E+00   -0.1965200615E+02   -0.3578837395E+01    0.1999954987E+02    0.4977201819E+00    0    0
  -16    1    8    8    0    0    0.9875225067E+01    0.2083456421E+02   -0.1463796329E+02    0.2731060410E+02    0.0000000000E+00    0    0
  323    2    8    8    0    0    0.5030587673E+01    0.1051214695E+02   -0.6692214489E+01    0.1346848488E+02    0.8957164288E+00    0    0
  211    1   14   14    0    0    0.9391226768E+00    0.1468279600E+01   -0.9410487413E+00    0.1985660672E+01    0.1395678371E+00    0    0
  130    1   14   14    0    0    0.4091465473E+01    0.9043868065E+01   -0.5751165867E+01    0.1148282528E+02    0.4977199733E+00    0    0
</event>
<event>
   20 9999    1    0.9119999695E+02    0.7565275169E-02    0.1185000000E+00
   11   -1    0    0    0    0    0.0000000000E+00    0.0000000000E+00    0.8000000000E+02    0.8000000000E+02    0.5109988851E-03    0    0
  -11   -1    0    0    0    0    0.0000000000E+00    0.0000000000E+00   -0.8000000000E+02    0.8000000000E+02    0.5109988851E-03    0    0
  -24    2    1    2    0    0    0.4321410656E+01   -0.2099033928E+02    0.2210887671E+00    0.6364756393E+02    0.5993074799E+02    0    0
   24    2    1    2    0    0    0.1100059748E+01    0.8896766663E+01    0.5491108894E+01    0.8192066193E+02    0.8124333954E+02    0    0
   22    1    1    2    0    0   -0.5421470165E+01    0.1209357357E+02   -0.5712197781E+01    0.1443177223E+02    0.0000000000E+00    0    0
   15    2    3    3    0    0    0.4524194241E+01    0.1222129822E+02    0.2077598000E+02    0.2458917809E+02    0.1777029991E+01    0    0
  -16    1    3    3    0    0   -0.2027839869E+00   -0.3321163940E+02   -0.2055489159E+02    0.3905838776E+02    0.0000000000E+00    0    0
   16    1    4    4    0    0   -0.3239109039E+02    0.2227749974E+00   -0.2074473000E+02    0.3846525955E+02    0.0000000000E+00    0    0
  -15    2    4    4    0    0    0.3349114990E+02    0.8673991203E+01    0.2623583984E+02    0.4345540619E+02    0.1777029991E+01    0    0
   16    1    6    6    0    0    0.7867591977E+00    0.2144964933E+01    0.3205609560E+01    0.3936470270E+01    0.6072921096E-03    0    0
  -24    2    6    6    0    0    0.3737612963E+01    0.1007681274E+02    0.1757118797E+02    0.2065367317E+02    0.1521741986E+01    0    0
  221    1   11   11    0    0    0.1728985786E+01    0.4801809311E+01    0.7500195503E+01    0.9088502884E+01    0.5487998724E+00    0    0
 -211    1   11   11    0    0    0.1150173187E+01    0.2157238960E+01    0.4261186600E+01    0.4914648533E+01    0.1395679563E+00    0    0
  111    1   11   11    0    0    0.8584547043E+00    0.3117766619E+01    0.5809808254E+01    0.6650526047E+01    0.1349639297E+00    0    0
  -16    1    9    9    0    0    0.6819019794E+01    0.1337978005E+01    0.5220623493E+01    0.8691612244E+01    0.2422257676E-03    0    0
   24    2    9    9    0    0    0.2667344666E+02    0.7336355209E+01    0.2101624870E+02    0.3476550293E+02    0.1289439201E+01    0    0
  111    1   16   16    0    0    0.2344249010E+01    0.5006631613E+00    0.1903383732E+01    0.3063862324E+01    0.1349642128E+00    0    0
  111    1   16   16    0    0    0.1136029243E+02    0.2891315222E+01    0.8701807976E+01    0.1459985065E+02    0.1349636018E+00    0    0
  111    1   16   16    0    0    0.1048527813E+02    0.3211397171E+01    0.8639966965E+01    0.1396142483E+02    0.1349641234E+00    0    0
  211    1   16   16    0    0    0.2483628988E+01    0.7329801917E+00    0.1771091819E+01    0.3140369177E+01    0.1395679861E+00    0    0
</event>
<event>
   21 9999    1    0.9119999695E+02    0.7565275169E-02    0.1185000000E+00
   11   -1    0    0    0    0    0.0000000000E+00    0.0000000000E+00    0.8000000000E+02    0.8000000000E+02    0.5109988851E-03    0    0
  -11   -1    0    0    0    0    0.0000000000E+00    0.0000000000E+00   -0.8000000000E+02    0.8000000000E+02    0.5109988851E-03    0    0
  -24    2    1    2    0    0    0.2354251146E+01   -0.3385096788E+01    0.9419664383E+01    0.7949619293E+02    0.7882838440E+02    0    0
   24    2    1    2    0    0   -0.1923057199E+01    0.3117066383E+01   -0.1320874691E+02    0.7668055725E+02    0.7544549561E+02    0    0
   22    1    1    2    0    0   -0.4312526584E+00    0.2679366767E+00    0.3789104462E+01    0.3822967529E+01    0.0000000000E+00    0    0
   22    1    1    2    0    0    0.5856048665E-04    0.9370341286E-04   -0.1318105351E-03    0.1719990541E-03    0.0000000000E+00    0    0
   22    1    1    2    0    0    0.2736242521E-07    0.1186279430E-07    0.1093601604E-03    0.1093601604E-03    0.0000000000E+00    0    0
   15    2    3    3    0    0    0.1508845139E+02    0.3271778870E+02   -0.8751671791E+01    0.3711960220E+02    0.1777029991E+01    0    0
  -16    1    3    3    0    0   -0.1273420048E+02   -0.3610288620E+02    0.1817133522E+02    0.4237659454E+02    0.0000000000E+00    0    0
   16    1    4    4    0    0    0.5498438835E+01    0.3491667938E+02   -0.2344260979E+02    0.4241418839E+02    0.0000000000E+00    0    0
  -15    2    4    4    0    0   -0.7421496391E+01   -0.3179961586E+02    0.1023386288E+02    0.3426636887E+02    0.1777029991E+01    0    0
   16    1    8    8    0    0    0.2280023336E+01    0.3820863485E+01   -0.1205346942E+01    0.4609811783E+01    0.1831054688E-03    0    0
   11    1    8    8    0    0    0.9872732162E+01    0.2211939240E+02   -0.6177616596E+01    0.2499802589E+02    0.5854286719E-03    0    0
  -12    1    8    8    0    0    0.2936290979E+01    0.6778821468E+01   -0.1369052649E+01    0.7513223648E+01    0.0000000000E+00    0    0
  -16    1   11   11    0    0   -0.8349081874E+00   -0.2645446777E+01    0.9292851686E+00    0.2925582170E+01    0.4178791423E-03    0    0
   24    2   11   11    0    0   -0.6586880207E+01   -0.2915541840E+02    0.9304980278E+01    0.3134213257E+02    0.1523538709E+01    0    0
  211    1   16   16    0    0   -0.8025704026E+00   -0.3528861523E+01    0.1441921592E+01    0.3898153305E+01    0.1395677924E+00    0    0
  211    1   16   16    0    0   -0.1629997015E+01   -0.7554258347E+01    0.2322065830E+01    0.8070636749E+01    0.1395679861E+00    0    0
 -211    1   16   16    0    0   -0.1981907964E+01   -0.9104394913E+01    0.2833268166E+01    0.9739859581E+01    0.1395680159E+00    0    0
  111    1   16   16    0    0   -0.1565068483E+01   -0.6135760784E+01    0.1630332708E+01    0.6540122509E+01    0.1349640340E+00    0    0
  111    1   16   16    0    0   -0.6073360443E+00   -0.2832143068E+01    0.1077392101E+01    0.3093360662E+01    0.1349639297E+00    0    0
</event>
<event>
   19 9999    1    0.9119999695E+02    0.7565275169E-02    0.1185000000E+00
   11   -1    0    0    0    0    0.0000000000E+00    0.0000000000E+00    0.8000000000E+02    0.8000000000E+02    0.5109988851E-03    0    0
  -11   -1    0    0    0    0    0.0000000000E+00    0.0000000000E+00   -0.8000000000E+02    0.8000000000E+02    0.5109988851E-03    0    0
  -24    2    1    2    0    0   -0.4350913167E+00   -0.1267202139E+01   -0.3340149164E+01    0.8078119659E+02    0.8070098877E+02    0    0
   24    2    1    2    0    0    0.4350913167E+00    0.1267202139E+01    0.3340149164E+01    0.7921880341E+02    0.7913701630E+02    0    0
   15    2    3    3    0    0   -0.3272834539E+01   -0.1575096989E+02    0.3561696243E+02    0.3912199402E+02    0.1777029991E+01    0    0
  -16    1    3    3    0    0    0.2837743044E+01    0.1448376751E+02   -0.3895711136E+02    0.4165919876E+02    0.0000000000E+00    0    0
   16    1    4    4    0    0    0.3934856796E+02   -0.3939860344E+01    0.5135095596E+01    0.3987733078E+02    0.0000000000E+00    0    0
  -15    2    4    4    0    0   -0.3891347504E+02    0.5207062244E+01   -0.1794946432E+01    0.3934147644E+02    0.1777029991E+01    0    0
   16    1    5    5    0    0   -0.2257225990E+01   -0.1056546211E+02    0.2289954948E+02    0.2532021713E+02    0.4727763007E-03    0    0
  -24    2    5    5    0    0   -0.1015737176E+01   -0.5186127186E+01    0.1271881580E+02    0.1380331612E+02    0.9141209126E+00    0    0
  111    1   10   10    0    0   -0.9174951166E-01   -0.9206197262E+00    0.2744730949E+01    0.2899607182E+01    0.1349637359E+00    0    0
  111    1   10   10    0    0   -0.1770355701E+00   -0.8105617762E+00    0.2331740379E+01    0.2478624582E+01    0.1349638700E+00    0    0
  111    1   10   10    0    0   -0.4104551971E+00   -0.1705565453E+01    0.3791878223E+01    0.4180189133E+01    0.1349640191E+00    0    0
 -211    1   10   10    0    0   -0.3364967704E+00   -0.1749379396E+01    0.3850464582E+01    0.4244892597E+01    0.1395679861E+00    0    0
  -16    1    8    8    0    0   -0.1359784222E+02    0.1768276691E+01   -0.6343460083E+00    0.1372699928E+02    0.4932220909E-03    0    0
   24    2    8    8    0    0   -0.2531716347E+02    0.3438990593E+01   -0.1160671115E+01    0.2561602402E+02    0.1431117296E+01    0    0
  321    1   16   16    0    0   -0.1648447227E+02    0.2357368231E+01   -0.5657770634E+00    0.1666909790E+02    0.4936669171E+00    0    0
  111    1   16   16    0    0   -0.3924186468E+01    0.5350404978E+00   -0.2182311565E+00    0.3968796730E+01    0.1349641681E+00    0    0
  310    1   16   16    0    0   -0.4908506393E+01    0.5465821624E+00   -0.3766630292E+00    0.4978130817E+01    0.4977200925E+00    0    0
</event>
<event>
   16 9999    1    0.9119999695E+02    0.7565275169E-02    0.1185000000E+00
   11   -1    0    0    0    0    0.0000000000E+00    0.0000000000E+00    0.8000000000E+02    0.8000000000E+02    0.5109988851E-03    0    0
  -11   -1    0    0    0    0    0.0000000000E+00    0.0000000000E+00   -0.8000000000E+02    0.8000000000E+02    0.5109988851E-03    0    0
  -24    2    1    2    0    0   -0.2303003550E+01   -0.6247147083E+01    0.8724966049E+01    0.7886555481E+02    0.7809814453E+02    0    0
   24    2    1    2    0    0    0.2305304289E+01    0.6248551369E+01   -0.8702798843E+01    0.8111211395E+02    0.8036838531E+02    0    0
   22    1    1    2    0    0   -0.2300804481E-02   -0.1404245500E-02   -0.2216672152E-01    0.2233000472E-01    0.0000000000E+00    0    0
   15    2    3    3    0    0   -0.3174205017E+02   -0.9481513977E+01   -0.1905596924E+02    0.3825891495E+02    0.1777029991E+01    0    0
  -16    1    3    3    0    0    0.2943904686E+02    0.3234366894E+01    0.2778093529E+02    0.4060663605E+02    0.0000000000E+00    0    0
   16    1    4    4    0    0   -0.6588205814E+01    0.1253866482E+02    0.3409181595E+02    0.3691712952E+02    0.0000000000E+00    0    0
  -15    2    4    4    0    0    0.8893509865E+01   -0.6290113449E+01   -0.4279461288E+02    0.4419498825E+02    0.1777029991E+01    0    0
   16    1    6    6    0    0   -0.1887570763E+02   -0.6231627941E+01   -0.1217415524E+02    0.2330955887E+02    0.2990099892E-03    0    0
 -211    1    6    6    0    0   -0.1286759472E+02   -0.3250259399E+01   -0.6882565498E+01    0.1495086479E+02    0.1395682842E+00    0    0
  -16    1    9    9    0    0    0.3380339146E+01   -0.2223086834E+01   -0.1673747635E+02    0.1721952057E+02    0.3286843712E-03    0    0
   24    2    9    9    0    0    0.5513521194E+01   -0.4067274094E+01   -0.2605882263E+02    0.2697720528E+02    0.1328813672E+01    0    0
  321    1   13   13    0    0    0.2316602707E+01   -0.1524888277E+01   -0.1089253616E+02    0.1125091076E+02    0.4936670065E+00    0    0
  211    1   13   13    0    0    0.1679825783E+01   -0.1137240767E+01   -0.7427143574E+01    0.7700459480E+01    0.1395682096E+00    0    0
 -321    1   13   13    0    0    0.1517092824E+01   -0.1405145049E+01   -0.7739141941E+01    0.8025835037E+01    0.4936669767E+00    0    0
</event>
<event>
   19 9999    1    0.9119999695E+02    0.7565275169E-02    0.1185000000E+00
   11   -1    0    0    0    0    0.0000000000E+00    0.0000000000E+00    0.8000000000E+02    0.8000000000E+02    0.5109988851E-03    0    0
  -11   -1    0    0    0    0    0.0000000000E+00    0.0000000000E+00   -0.8000000000E+02    0.8000000000E+02    0.5109988851E-03    0    0
  -24    2    1    2    0    0    0.5713201046E+01   -0.2554275751E+01    0.2666704178E+02    0.8256227112E+02    0.7788602448E+02    0    0
   24    2    1    2    0    0   -0.5781511784E+01    0.2339237690E+01   -0.2687516022E+02    0.7697525024E+02    0.7186109161E+02    0    0
   22    1    1    2    0    0    0.6739996374E-01    0.2198422402E+00   -0.2282416262E-01    0.2310720831E+00    0.0000000000E+00    0    0
   22    1    1    2    0    0   -0.1369962320E-05    0.3002685617E-05    0.2052575499E+00    0.2052575499E+00    0.0000000000E+00    0    0
   22    1    1    2    0    0    0.9124010103E-03   -0.4806975834E-02    0.2568544634E-01    0.2614730783E-01    0.0000000000E+00    0    0
   15    2    3    3    0    0    0.2777313423E+02    0.1965979576E+02   -0.8862885475E+01    0.3520743179E+02    0.1777029991E+01    0    0
  -16    1    3    3    0    0   -0.2205993271E+02   -0.2221407127E+02    0.3552992630E+02    0.4735484314E+02    0.0000000000E+00    0    0
   16    1    4    4    0    0    0.1471390629E+02    0.2935653877E+02   -0.2776965904E+02    0.4300534058E+02    0.0000000000E+00    0    0
  -15    2    4    4    0    0   -0.2049541855E+02   -0.2701729965E+02    0.8944994211E+00    0.3396990585E+02    0.1777029991E+01    0    0
   16    1    8    8    0    0    0.2617916298E+02    0.1882742310E+02   -0.8397781372E+01    0.3332181168E+02    0.3571176203E-03    0    0
   13    1    8    8    0    0    0.1373637319E+01    0.7188584805E+00   -0.5065830946E+00    0.1634450197E+01    0.1056590229E+00    0    0
  -14    1    8    8    0    0    0.2214266509E+00    0.1142887995E+00    0.4112976417E-01    0.2525536716E+00    0.9155273438E-04    0    0
  -16    1   11   11    0    0   -0.2735110760E+01   -0.2947636366E+01    0.3437601402E-01    0.4021265030E+01    0.3677969507E-03    0    0
20213    2   11   11    0    0   -0.1776111412E+02   -0.2407072830E+02    0.8601586819E+00    0.2994998169E+02    0.1185047388E+01    0    0
  111    1   16   16    0    0   -0.8745443344E+01   -0.1224898338E+02    0.5782609582E+00    0.1506230259E+02    0.1349635124E+00    0    0
  111    1   16   16    0    0   -0.2058234692E+01   -0.3035083294E+01    0.2643043399E+00    0.3679148197E+01    0.1349639446E+00    0    0
  211    1   16   16    0    0   -0.6957437038E+01   -0.8786662102E+01    0.1759336330E-01    0.1120853043E+02    0.1395679265E+00    0    0
</event>
<event>
   21 9999    1    0.9119999695E+02    0.7565275169E-02    0.1185000000E+00
   11   -1    0    0    0    0    0.0000000000E+00    0.0000000000E+00    0.8000000000E+02    0.8000000000E+02    0.5109988851E-03    0    0
  -11   -1    0    0    0    0    0.0000000000E+00    0.0000000000E+00   -0.8000000000E+02    0.8000000000E+02    0.5109988851E-03    0    0
  -24    2    1    2    0    0   -0.4132122993E+01    0.5704063416E+01   -0.3247495294E+00    0.8136931610E+02    0.8106324768E+02    0    0
   24    2    1    2    0    0    0.4132111549E+01   -0.5704329967E+01    0.3395765424E+00    0.7861585236E+02    0.7829893494E+02    0    0
   22    1    1    2    0    0    0.1140550194E-04    0.2665838692E-03   -0.1482701581E-01    0.1482941676E-01    0.0000000000E+00    0    0
   15    2    3    3    0    0    0.2403087234E+02    0.3265197754E+02   -0.8695524216E+01    0.4150186157E+02    0.1777029991E+01    0    0
  -16    1    3    3    0    0   -0.2816299438E+02   -0.2694791412E+02    0.8370775223E+01    0.3986745834E+02    0.0000000000E+00    0    0
   16    1    4    4    0    0    0.1455237961E+02   -0.3293504333E+02    0.2204905891E+02    0.4222143936E+02    0.0000000000E+00    0    0
  -15    2    4    4    0    0   -0.1042026806E+02    0.2723071480E+02   -0.2170948219E+02    0.3639441299E+02    0.1777029991E+01    0    0
   16    1    6    6    0    0    0.6077766418E+01    0.8255444527E+01   -0.2522164583E+01    0.1055712700E+02    0.0000000000E+00    0    0
  -24    2    6    6    0    0    0.1795405197E+02    0.2439781952E+02   -0.6173702240E+01    0.3094636726E+02    0.1400557399E+01    0    0
 -211    1   11   11    0    0    0.4658591747E+01    0.6161466122E+01   -0.1297432184E+01    0.7833833694E+01    0.1395678818E+00    0    0
 -211    1   11   11    0    0    0.1481926799E+01    0.2035662413E+01   -0.4917644262E+00    0.2569307327E+01    0.1395680010E+00    0    0
 -211    1   11   11    0    0    0.2672789097E+01    0.3772147179E+01   -0.8808081746E+00    0.4708311558E+01    0.1395679861E+00    0    0
  211    1   11   11    0    0    0.2841117144E+01    0.3527237415E+01   -0.8410444856E+00    0.4608707428E+01    0.1395680010E+00    0    0
  211    1   11   11    0    0    0.6299627304E+01    0.8901306152E+01   -0.2662652969E+01    0.1122620869E+02    0.1395679563E+00    0    0
  -16    1    9    9    0    0   -0.7825250030E+00    0.1476630092E+01   -0.1146767378E+01    0.2026784897E+01    0.4342727480E-03    0    0
   24    2    9    9    0    0   -0.9638153076E+01    0.2575515556E+02   -0.2056357002E+02    0.3436906052E+02    0.1466228008E+01    0    0
  321    1   18   18    0    0   -0.5077592850E+01    0.1357490540E+02   -0.1105334759E+02    0.1823403931E+02    0.4936670661E+00    0    0
  211    1   18   18    0    0   -0.1181460500E+01    0.3476891279E+01   -0.2399159431E+01    0.4388629436E+01    0.1395679265E+00    0    0
 -321    1   18   18    0    0   -0.3379101276E+01    0.8703361511E+01   -0.7111065388E+01    0.1174639511E+02    0.4936670661E+00    0    0
</event>
<event>
   17 9999    1    0.9119999695E+02    0.7565275169E-02    0.1185000000E+00
   11   -1    0    0    0    0    0.0000000000E+00    0.0000000000E+00    0.8000000000E+02    0.8000000000E+02    0.5109988851E-03    0    0
  -11   -1    0    0    0    0    0.0000000000E+00    0.0000000000E+00   -0.8000000000E+02    0.8000000000E+02    0.5109988851E-03    0    0
  -24    2    1    2    0    0   -0.1422507858E+02   -0.7623646736E+01    0.3239838028E+02    0.7190365601E+02    0.6212895966E+02    0    0
   24    2    1    2    0    0    0.1422507858E+02    0.7623646736E+01   -0.3239838028E+02    0.8809634399E+02    0.8031710815E+02    0    0
   15    2    3    3    0    0   -0.3821161270E+02    0.1339654446E+01    0.1593232346E+02    0.4145984650E+02    0.1777029991E+01    0    0
  -16    1    3    3    0    0    0.2398653221E+02   -0.8963300705E+01    0.1646605873E+02    0.3044381142E+02    0.0000000000E+00    0    0
   16    1    4    4    0    0    0.1778970528E+02    0.2553942871E+02    0.1695349693E+02    0.3544230652E+02    0.0000000000E+00    0    0
  -15    2    4    4    0    0   -0.3564626932E+01   -0.1791578293E+02   -0.4935187912E+02    0.5265403748E+02    0.1777029991E+01    0    0
   16    1    5    5    0    0   -0.1009706402E+02    0.5096212029E+00    0.4448195934E+01    0.1104521847E+02    0.5033087800E-03    0    0
  -24    2    5    5    0    0   -0.2811605072E+02    0.8300859928E+00    0.1148475456E+02    0.3041625786E+02    0.1430985451E+01    0    0
 -321    1   10   10    0    0   -0.1066377354E+02    0.1045426875E+00    0.4182463646E+01    0.1146576214E+02    0.4936669767E+00    0    0
  111    1   10   10    0    0   -0.6745523453E+01    0.2044505179E+00    0.3064484119E+01    0.7413040638E+01    0.1349642426E+00    0    0
  310    1   10   10    0    0   -0.1070675373E+02    0.5210926533E+00    0.4237806320E+01    0.1153745365E+02    0.4977200627E+00    0    0
  -16    1    8    8    0    0   -0.2492780924E+01   -0.1026223278E+02   -0.2666419792E+02    0.2867937851E+02    0.0000000000E+00    0    0
  213    2    8    8    0    0   -0.1071986198E+01   -0.7654254436E+01   -0.2268962288E+02    0.2397673035E+02    0.5725182295E+00    0    0
  211    1   15   15    0    0   -0.7079629302E+00   -0.3382252693E+01   -0.9847322464E+01    0.1043695736E+02    0.1395679861E+00    0    0
  111    1   15   15    0    0   -0.3640230000E+00   -0.4272000313E+01   -0.1284229660E+02    0.1353976727E+02    0.1349639595E+00    0    0
</event>
<event>
   17 9999    1    0.9119999695E+02    0.7565275169E-02    0.1185000000E+00
   11   -1    0    0    0    0    0.0000000000E+00    0.0000000000E+00    0.8000000000E+02    0.8000000000E+02    0.5109988851E-03    0    0
  -11   -1    0    0    0    0    0.0000000000E+00    0.0000000000E+00   -0.8000000000E+02    0.8000000000E+02    0.5109988851E-03    0    0
  -24    2    1    2    0    0    0.1114445400E+02    0.1473764420E+02   -0.4260152340E+01    0.8157841492E+02    0.7934413910E+02    0    0
   24    2    1    2    0    0   -0.1114462471E+02   -0.1473786926E+02    0.4186339855E+01    0.7834777069E+02    0.7602262878E+02    0    0
   22    1    1    2    0    0    0.1702132868E-03    0.2255082800E-03    0.7381261885E-01    0.7381315529E-01    0.0000000000E+00    0    0
   15    2    3    3    0    0    0.2882817078E+02    0.2360733223E+02    0.2596807289E+02    0.4545182419E+02    0.1777029991E+01    0    0
  -16    1    3    3    0    0   -0.1768371582E+02   -0.8869688034E+01   -0.3022822571E+02    0.3612659454E+02    0.0000000000E+00    0    0
   16    1    4    4    0    0    0.3011519909E+01    0.8549947739E+01    0.3559196854E+02    0.3672817993E+02    0.0000000000E+00    0    0
  -15    2    4    4    0    0   -0.1415614414E+02   -0.2328781700E+02   -0.3140563011E+02    0.4161959076E+02    0.1777029991E+01    0    0
   16    1    6    6    0    0    0.8120364189E+01    0.6275969028E+01    0.7091585159E+01    0.1247472191E+02    0.2763484372E-03    0    0
  -24    2    6    6    0    0    0.2070894241E+02    0.1733229256E+02    0.1887751198E+02    0.3297889328E+02    0.1406490684E+01    0    0
 -321    1   11   11    0    0    0.6641419888E+01    0.5742598534E+01    0.6430162430E+01    0.1089387894E+02    0.4936671257E+00    0    0
 -211    1   11   11    0    0    0.8495494127E+00    0.8718254566E+00    0.8375881910E+00    0.1484199166E+01    0.1395679861E+00    0    0
  211    1   11   11    0    0    0.1321797180E+02    0.1071786785E+02    0.1160976028E+02    0.2060081291E+02    0.1395679116E+00    0    0
  -16    1    9    9    0    0   -0.2133385181E+01   -0.3297924042E+01   -0.3657555342E+01    0.5367061138E+01    0.1726334885E-03    0    0
  -11    1    9    9    0    0   -0.3187849283E+01   -0.5581329823E+01   -0.7788975239E+01    0.1009860134E+02    0.5285799853E-03    0    0
   12    1    9    9    0    0   -0.8835467339E+01   -0.1440948105E+02   -0.1996033669E+02    0.2615556717E+02    0.1495049946E-03    0    0
</event>
<event>
   18 9999    1    0.9119999695E+02    0.7565275169E-02    0.1185000000E+00
   11   -1    0    0    0    0    0.0000000000E+00    0.0000000000E+00    0.8000000000E+02    0.8000000000E+02    0.5109988851E-03    0    0
  -11   -1    0    0    0    0    0.0000000000E+00    0.0000000000E+00   -0.8000000000E+02    0.8000000000E+02    0.5109988851E-03    0    0
  -24    2    1    2    0    0   -0.1405785799E+01   -0.9404759407E+01   -0.2653145313E+01    0.8046804810E+02    0.7986013794E+02    0    0
   24    2    1    2    0    0    0.1405785799E+01    0.9404759407E+01    0.2653145313E+01    0.7953195190E+02    0.7891683197E+02    0    0
   15    2    3    3    0    0   -0.1964513779E+02   -0.6926719666E+01    0.3373583984E+02    0.3968848419E+02    0.1777029991E+01    0    0
  -16    1    3    3    0    0    0.1823935318E+02   -0.2478039980E+01   -0.3638898849E+02    0.4077956772E+02    0.0000000000E+00    0    0
   16    1    4    4    0    0   -0.3749799347E+02   -0.4942857027E+00   -0.7135614872E+01    0.3817408752E+02    0.0000000000E+00    0    0
  -15    2    4    4    0    0    0.3890378189E+02    0.9899044991E+01    0.9788760185E+01    0.4135786438E+02    0.1777029991E+01    0    0
   16    1    5    5    0    0   -0.1627390862E+02   -0.5208597660E+01    0.2784323311E+02    0.3266825867E+02    0.3807860485E-03    0    0
 -321    1    5    5    0    0   -0.3372003317E+01   -0.1718394756E+01    0.5893938541E+01    0.7021787643E+01    0.4936669767E+00    0    0
  -16    1    8    8    0    0    0.2650884628E+01    0.6094456911E+00    0.6723428965E+00    0.2801902771E+01    0.1250732112E-04    0    0
   24    2    8    8    0    0    0.3625442886E+02    0.9289989471E+01    0.9116803169E+01    0.3855759048E+02    0.1698291659E+01    0    0
  211    1   12   12    0    0    0.3512667418E+01    0.9677680731E+00    0.8815354109E+00    0.3751265287E+01    0.1395679861E+00    0    0
  211    1   12   12    0    0    0.4101754665E+01    0.1430537462E+01    0.9771375060E+00    0.4454784393E+01    0.1395680308E+00    0    0
  211    1   12   12    0    0    0.7199528217E+01    0.1743943691E+01    0.1876493454E+01    0.7642987251E+01    0.1395679712E+00    0    0
 -211    1   12   12    0    0    0.4489374638E+01    0.9659575224E+00    0.1033139348E+01    0.4708971500E+01    0.1395679712E+00    0    0
 -211    1   12   12    0    0    0.1467965603E+02    0.3695771694E+01    0.3695636988E+01    0.1558294773E+02    0.1395679563E+00    0    0
  111    1   12   12    0    0    0.2271446943E+01    0.4860111177E+00    0.6528602839E+00    0.2416634083E+01    0.1349639595E+00    0    0
</event>
<event>
   20 9999    1    0.9119999695E+02    0.7565275169E-02    0.1185000000E+00
   11   -1    0    0    0    0    0.0000000000E+00    0.0000000000E+00    0.8000000000E+02    0.8000000000E+02    0.5109988851E-03    0    0
  -11   -1    0    0    0    0    0.0000000000E+00    0.0000000000E+00   -0.8000000000E+02    0.8000000000E+02    0.5109988851E-03    0    0
  -24    2    1    2    0    0   -0.1064862919E+02   -0.6668715477E+01   -0.1027938747E+02    0.7628666687E+02    0.7453941345E+02    0    0
   24    2    1    2    0    0    0.1064829636E+02    0.6668787003E+01    0.9535148621E+01    0.8296909332E+02    0.8145607758E+02    0    0
   22    1    1    2    0    0    0.3330563486E-03   -0.7159161032E-04    0.7442394495E+00    0.7442395091E+00    0.0000000000E+00    0    0
   15    2    3    3    0    0   -0.2949634361E+02   -0.2393950081E+02    0.1448438835E+02    0.4069507599E+02    0.1777029991E+01    0    0
  -16    1    3    3    0    0    0.1884771538E+02    0.1727078629E+02   -0.2476377678E+02    0.3559158707E+02    0.0000000000E+00    0    0
   16    1    4    4    0    0   -0.8667149544E+01   -0.3519030380E+02    0.2872302532E+01    0.3635556412E+02    0.0000000000E+00    0    0
  -15    2    4    4    0    0    0.1931544495E+02    0.4185909271E+02    0.6662846088E+01    0.4661353302E+02    0.1777029991E+01    0    0
   16    1    6    6    0    0   -0.4139401913E+01   -0.3565348864E+01    0.2283746243E+01    0.5921305180E+01    0.0000000000E+00    0    0
  -24    2    6    6    0    0   -0.2535810089E+02   -0.2037509346E+02    0.1220121098E+02    0.3477537155E+02    0.1509704232E+01    0    0
 -211    1   11   11    0    0   -0.6972589016E+01   -0.5884524822E+01    0.3214625597E+01    0.9674602509E+01    0.1395679265E+00    0    0
 -211    1   11   11    0    0   -0.1860827327E+01   -0.1473177433E+01    0.7243322134E+00    0.2485370398E+01    0.1395679861E+00    0    0
  211    1   11   11    0    0   -0.3248532057E+01   -0.2475344896E+01    0.1563209295E+01    0.4375316620E+01    0.1395679563E+00    0    0
  111    1   11   11    0    0   -0.1183731914E+01   -0.9609301686E+00    0.6666959524E+00    0.1669523001E+01    0.1349639744E+00    0    0
  111    1   11   11    0    0   -0.6697077751E+01   -0.5470877171E+01    0.3470180035E+01    0.9318890572E+01    0.1349639595E+00    0    0
  111    1   11   11    0    0   -0.5395343304E+01   -0.4110238075E+01    0.2562167883E+01    0.7251669407E+01    0.1349639744E+00    0    0
  -16    1    9    9    0    0    0.7433979034E+01    0.1488076782E+02    0.1742315292E+01    0.1672533989E+02    0.3452669771E-03    0    0
  -11    1    9    9    0    0    0.9677616119E+01    0.2174617386E+02    0.3893755198E+01    0.2411874008E+02    0.5033087800E-03    0    0
   12    1    9    9    0    0    0.2204610586E+01    0.5233798027E+01    0.1027037621E+01    0.5771287441E+01    0.8631674427E-04    0    0
</event>
<event>
   22 9999    1    0.9119999695E+02    0.7565275169E-02    0.1185000000E+00
   11   -1    0    0    0    0    0.0000000000E+00    0.0000000000E+00    0.8000000000E+02    0.8000000000E+02    0.5109988851E-03    0    0
  -11   -1    0    0    0    0    0.0000000000E+00    0.0000000000E+00   -0.8000000000E+02    0.8000000000E+02    0.5109988851E-03    0    0
  -24    2    1    2    0    0    0.1271958160E+02    0.1464363670E+02    0.2247248077E+02    0.8617612457E+02    0.8090171814E+02    0    0
   24    2    1    2    0    0   -0.1271958160E+02   -0.1464363766E+02   -0.2246729088E+02    0.7381868744E+02    0.6758842468E+02    0    0
   22    1    1    2    0    0   -0.5804452741E-07    0.5919106911E-06   -0.5189517047E-02    0.5189517047E-02    0.0000000000E+00    0    0
   15    2    3    3    0    0    0.3544522095E+02    0.3200139618E+02   -0.2998313665E+01    0.4788111115E+02    0.1777029991E+01    0    0
  -16    1    3    3    0    0   -0.2272563934E+02   -0.1735776138E+02    0.2547079277E+02    0.3829500961E+02    0.0000000000E+00    0    0
   16    1    4    4    0    0    0.9322761297E+00   -0.2043523788E+02    0.2011721039E+02    0.2869094276E+02    0.0000000000E+00    0    0
  -15    2    4    4    0    0   -0.1365185833E+02    0.5791600704E+01   -0.4258449936E+02    0.4512774277E+02    0.1777029991E+01    0    0
   16    1    6    6    0    0    0.2902000666E+01    0.2448499918E+01   -0.5155112743E+00    0.3831776381E+01    0.1726334885E-03    0    0
  -24    2    6    6    0    0    0.3254461670E+02    0.2955415726E+02   -0.2482920408E+01    0.4405121994E+02    0.1320932627E+01    0    0
  111    1   11   11    0    0    0.1219779587E+02    0.1067032719E+02   -0.1084821582E+01    0.1624306488E+02    0.1349638104E+00    0    0
  111    1   11   11    0    0    0.6117226601E+01    0.5407340050E+01   -0.5883096457E+00    0.8186825752E+01    0.1349640638E+00    0    0
 -321    1   11   11    0    0    0.1422959423E+02    0.1347649097E+02   -0.8097891212E+00    0.1962133026E+02    0.4936669469E+00    0    0
  -16    1    9    9    0    0   -0.1207564354E+01    0.5055764318E+00   -0.3589514971E+01    0.3820790052E+01    0.1078959303E-04    0    0
   24    2    9    9    0    0   -0.1244483089E+02    0.5286252022E+01   -0.3899665833E+02    0.4130872726E+02    0.1689195275E+01    0    0
  211    1   16   16    0    0   -0.1109741092E+01    0.4130509496E+00   -0.3135310411E+01    0.3354368210E+01    0.1395679861E+00    0    0
  211    1   16   16    0    0   -0.4262060642E+01    0.1818127990E+01   -0.1329778290E+02    0.1408265781E+02    0.1395679414E+00    0    0
 -211    1   16   16    0    0   -0.2260023832E+01    0.9616114497E+00   -0.7134624481E+01    0.7546837330E+01    0.1395679861E+00    0    0
  111    1   16   16    0    0   -0.2990548134E+01    0.1647372842E+01   -0.9439585686E+01    0.1003898525E+02    0.1349638999E+00    0    0
  111    1   16   16    0    0   -0.5139324665E+00    0.1915816218E+00   -0.1945276856E+01    0.2025622845E+01    0.1349640191E+00    0    0
  111    1   16   16    0    0   -0.1308524609E+01    0.2545069456E+00   -0.4044078827E+01    0.4260258198E+01    0.1349638849E+00    0    0
</event>
<event>
   14 9999    1    0.9119999695E+02    0.7565275169E-02    0.1185000000E+00
   11   -1    0    0    0    0    0.0000000000E+00    0.0000000000E+00    0.8000000000E+02    0.8000000000E+02    0.5109988851E-03    0    0
  -11   -1    0    0    0    0    0.0000000000E+00    0.0000000000E+00   -0.8000000000E+02    0.8000000000E+02    0.5109988851E-03    0    0
  -24    2    1    2    0    0    0.2908286333E+01    0.5184796810E+01    0.2197077751E+02    0.8373972321E+02    0.8058712769E+02    0    0
   24    2    1    2    0    0   -0.2911427498E+01   -0.5185155869E+01   -0.2194022751E+02    0.7622597504E+02    0.7275756836E+02    0    0
   22    1    1    2    0    0    0.3143411828E-02    0.3628434788E-03   -0.3235075623E-01    0.3250513971E-01    0.0000000000E+00    0    0
   22    1    1    2    0    0   -0.2186645816E-05   -0.3939018825E-05    0.1799758989E-02    0.1799764694E-02    0.0000000000E+00    0    0
   15    2    3    3    0    0   -0.3156662560E+02   -0.4266671181E+01   -0.1232517242E+02    0.3420122910E+02    0.1777029991E+01    0    0
  -16    1    3    3    0    0    0.3447491074E+02    0.9451468468E+01    0.3429595184E+02    0.4953849030E+02    0.0000000000E+00    0    0
   16    1    4    4    0    0    0.2606283188E+02   -0.2019158554E+02    0.5660281658E+01    0.3345160675E+02    0.0000000000E+00    0    0
  -15    2    4    4    0    0   -0.2897425842E+02    0.1500642872E+02   -0.2760050774E+02    0.4277436829E+02    0.1777029991E+01    0    0
   16    1    7    7    0    0   -0.2315131760E+02   -0.2459510326E+01   -0.8557066917E+01    0.2480435562E+02    0.2441406250E-03    0    0
 -211    1    7    7    0    0   -0.8416553497E+01   -0.1807329059E+01   -0.3768590689E+01    0.9398221016E+01    0.1395681798E+00    0    0
  -16    1   10   10    0    0   -0.2478181267E+02    0.1271109295E+02   -0.2407595634E+02    0.3681523895E+02    0.3229676804E-03    0    0
  321    1   10   10    0    0   -0.4193588734E+01    0.2295927763E+01   -0.3525640488E+01    0.5960815430E+01    0.4936670363E+00    0    0
</event>
<event>
   19 9999    1    0.9119999695E+02    0.7565275169E-02    0.1185000000E+00
   11   -1    0    0    0    0    0.0000000000E+00    0.0000000000E+00    0.8000000000E+02    0.8000000000E+02    0.5109988851E-03    0    0
  -11   -1    0    0    0    0    0.0000000000E+00    0.0000000000E+00   -0.8000000000E+02    0.8000000000E+02    0.5109988851E-03    0    0
  -24    2    1    2    0    0   -0.9521430969E+01   -0.1751747513E+02    0.2674203682E+02    0.8680489349E+02    0.8014008331E+02    0    0
   24    2    1    2    0    0    0.8546421051E+01    0.1625477409E+02   -0.1076532364E+02    0.5713533401E+02    0.5302164841E+02    0    0
   22    1    1    2    0    0    0.9750187397E+00    0.1262723088E+01   -0.1597852039E+02    0.1605796432E+02    0.0000000000E+00    0    0
   22    1    1    2    0    0   -0.8787738807E-05   -0.2336769830E-04    0.1806643093E-02    0.1806815504E-02    0.0000000000E+00    0    0
   15    2    3    3    0    0   -0.6140408516E+01   -0.1227979302E+01    0.5425984192E+02    0.5464888763E+02    0.1777029991E+01    0    0
  -16    1    3    3    0    0   -0.3381022453E+01   -0.1628949547E+02   -0.2751780701E+02    0.3215600586E+02    0.0000000000E+00    0    0
   16    1    4    4    0    0   -0.1930122948E+02    0.1398205090E+02    0.5901366234E+01    0.2455323410E+02    0.0000000000E+00    0    0
  -15    2    4    4    0    0    0.2784765053E+02    0.2272723913E+01   -0.1666668892E+02    0.3258209991E+02    0.1777029991E+01    0    0
   16    1    7    7    0    0   -0.6372410655E+00    0.6803608686E-01    0.3993826389E+01    0.4044917107E+01    0.8631674427E-04    0    0
  -24    2    7    7    0    0   -0.5503409386E+01   -0.1296063662E+01    0.5026815414E+02    0.5060612106E+02    0.1457784295E+01    0    0
 -321    1   12   12    0    0   -0.2445407867E+01   -0.4856947064E+00    0.2068840790E+02    0.2084394073E+02    0.4936670065E+00    0    0
  111    1   12   12    0    0   -0.1874323606E+01   -0.3293749690E+00    0.1597817230E+02    0.1609166908E+02    0.1349636018E+00    0    0
  310    1   12   12    0    0   -0.1183678031E+01   -0.4809940755E+00    0.1360157299E+02    0.1367051411E+02    0.4977200031E+00    0    0
  -16    1   10   10    0    0    0.1844164658E+02    0.1756095171E+01   -0.1151125813E+02    0.2181025696E+02    0.1220703125E-03    0    0
  323    2   10   10    0    0    0.9407099724E+01    0.5167183280E+00   -0.5156087875E+01    0.1077312756E+02    0.8452846408E+00    0    0
  211    1   17   17    0    0    0.3512256622E+01    0.2200764976E-01   -0.2126775980E+01    0.4108416557E+01    0.1395680755E+00    0    0
  130    1   17   17    0    0    0.5894844532E+01    0.4947107732E+00   -0.3029312611E+01    0.6664712429E+01    0.4977200627E+00    0    0
</event>
<event>
   15 9999    1    0.9119999695E+02    0.7565275169E-02    0.1185000000E+00
   11   -1    0    0    0    0    0.0000000000E+00    0.0000000000E+00    0.8000000000E+02    0.8000000000E+02    0.5109988851E-03    0    0
  -11   -1    0    0    0    0    0.0000000000E+00    0.0000000000E+00   -0.8000000000E+02    0.8000000000E+02    0.5109988851E-03    0    0
  -24    2    1    2    0    0    0.1387446284E+01   -0.2138451004E+02    0.1888125420E+01    0.7701697540E+02    0.7395152283E+02    0    0
   24    2    1    2    0    0   -0.1387446284E+01    0.2138451004E+02   -0.1888125420E+01    0.8298302460E+02    0.8014608765E+02    0    0
   15    2    3    3    0    0   -0.1615243912E+02   -0.2691078186E+01    0.3289369202E+02    0.3678717041E+02    0.1777029991E+01    0    0
  -16    1    3    3    0    0    0.1753988647E+02   -0.1869343185E+02   -0.3100556755E+02    0.4022980499E+02    0.0000000000E+00    0    0
   16    1    4    4    0    0   -0.2985383606E+02   -0.1182833385E+02   -0.1741779137E+02    0.3653136444E+02    0.0000000000E+00    0    0
  -15    2    4    4    0    0    0.2846639061E+02    0.3321284485E+02    0.1552966595E+02    0.4645166016E+02    0.1777029991E+01    0    0
   16    1    5    5    0    0   -0.3201862097E+01   -0.9669106007E+00    0.5760019302E+01    0.6660680294E+01    0.2157918643E-03    0    0
 -323    2    5    5    0    0   -0.1295121288E+02   -0.1724273443E+01    0.2713496780E+02    0.3012794113E+02    0.8241680861E+00    0    0
  111    1   10   10    0    0   -0.2041836739E+01   -0.4235962331E+00    0.4063575745E+01    0.4569397449E+01    0.1349639893E+00    0    0
 -321    1   10   10    0    0   -0.1090937710E+02   -0.1300677180E+01    0.2307139397E+02    0.2555854416E+02    0.4936667979E+00    0    0
  -16    1    8    8    0    0    0.1939969826E+02    0.2291442490E+02    0.1070637512E+02    0.3187547112E+02    0.1664537413E-03    0    0
  -11    1    8    8    0    0    0.3945342302E+01    0.4973140717E+01    0.2608329058E+01    0.6863033772E+01    0.5179004511E-03    0    0
   12    1    8    8    0    0    0.5122470379E+01    0.5326586246E+01    0.2215574026E+01    0.7714984894E+01    0.1220703125E-03    0    0
</event>
<event>
   25 9999    1    0.9119999695E+02    0.7565275169E-02    0.1185000000E+00
   11   -1    0    0    0    0    0.0000000000E+00    0.0000000000E+00    0.8000000000E+02    0.8000000000E+02    0.5109988851E-03    0    0
  -11   -1    0    0    0    0    0.0000000000E+00    0.0000000000E+00   -0.8000000000E+02    0.8000000000E+02    0.5109988851E-03    0    0
  -24    2    1    2    0    0    0.2379808426E+01   -0.4882929325E+01    0.2648663712E+02    0.8519011688E+02    0.8078556824E+02    0    0
   24    2    1    2    0    0   -0.2463217735E+01    0.4922018051E+01   -0.3067295265E+02    0.7033364868E+02    0.6305314255E+02    0    0
   22    1    1    2    0    0    0.8339856565E-01   -0.3901607171E-01    0.4330783844E+01    0.4331762791E+01    0.0000000000E+00    0    0
   22    1    1    2    0    0    0.1213327960E-04    0.4780804375E-06   -0.9401438385E-01    0.9401438385E-01    0.0000000000E+00    0    0
   22    1    1    2    0    0   -0.1433682428E-05   -0.7290425856E-04   -0.4950560629E-01    0.4950565845E-01    0.0000000000E+00    0    0
   22    1    1    2    0    0   -0.2058425075E-07    0.2855198922E-07   -0.9484130424E-03    0.9484130424E-03    0.0000000000E+00    0    0
   15    2    3    3    0    0   -0.2770656824E+01   -0.1188062382E+02    0.5449132538E+02    0.5586849213E+02    0.1777029991E+01    0    0
  -16    1    3    3    0    0    0.5150465012E+01    0.6997694492E+01   -0.2800469017E+02    0.2932162476E+02    0.0000000000E+00    0    0
   16    1    4    4    0    0    0.2141296387E+02   -0.1957265854E+02   -0.1298417568E+02    0.3178353119E+02    0.0000000000E+00    0    0
  -15    2    4    4    0    0   -0.2387618065E+02    0.2449467659E+02   -0.1768877792E+02    0.3855012131E+02    0.1777029991E+01    0    0
   16    1    9    9    0    0   -0.5181727409E+00   -0.4207348347E+01    0.1727276993E+02    0.1778535652E+02    0.5593964597E-03    0    0
  -24    2    9    9    0    0   -0.2252593040E+01   -0.7673742294E+01    0.3722069931E+02    0.3808533096E+02    0.1073116779E+01    0    0
  111    1   14   14    0    0   -0.1453766823E+00   -0.5146369338E+00    0.2297207594E+01    0.2362490892E+01    0.1349639744E+00    0    0
  111    1   14   14    0    0   -0.1122171998E+01   -0.2826343298E+01    0.1405613518E+02    0.1438195515E+02    0.1349640787E+00    0    0
 -321    1   14   14    0    0   -0.9850445986E+00   -0.4332763195E+01    0.2086736107E+02    0.2134088898E+02    0.4936670363E+00    0    0
  -16    1   12   12    0    0   -0.3881723285E+00    0.3516582847E+00   -0.3117088974E+00    0.6095110774E+00    0.1525878906E-04    0    0
   24    2   12   12    0    0   -0.2348894691E+02    0.2414398193E+02   -0.1737776375E+02    0.3794212723E+02    0.1719238281E+01    0    0
  211    1   19   19    0    0   -0.5000779629E+01    0.5553303719E+01   -0.3639894724E+01    0.8313560486E+01    0.1395679116E+00    0    0
  211    1   19   19    0    0   -0.2817597628E+01    0.3025670767E+01   -0.1916780472E+01    0.4559283733E+01    0.1395679563E+00    0    0
 -211    1   19   19    0    0   -0.2318075180E+01    0.2320388317E+01   -0.1688600063E+01    0.3691683054E+01    0.1395679861E+00    0    0
  111    1   19   19    0    0   -0.5585946083E+01    0.5693594456E+01   -0.3985804796E+01    0.8917660713E+01    0.1349639744E+00    0    0
  111    1   19   19    0    0   -0.5302672386E+01    0.5156883240E+01   -0.4079985142E+01    0.8448448181E+01    0.1349638999E+00    0    0
  111    1   19   19    0    0   -0.2463877201E+01    0.2394141912E+01   -0.2066699028E+01    0.4011491776E+01    0.1349638700E+00    0    0
</event>
<event>
   18 9999    1    0.9119999695E+02    0.7565275169E-02    0.1185000000E+00
   11   -1    0    0    0    0    0.0000000000E+00    0.0000000000E+00    0.8000000000E+02    0.8000000000E+02    0.5109988851E-03    0    0
  -11   -1    0    0    0    0    0.0000000000E+00    0.0000000000E+00   -0.8000000000E+02    0.8000000000E+02    0.5109988851E-03    0    0
  -24    2    1    2    0    0    0.1605291748E+02    0.1976442099E+01    0.3988200665E+01    0.7955099487E+02    0.7778722382E+02    0    0
   24    2    1    2    0    0   -0.1605271530E+02   -0.1976598501E+01   -0.4881199360E+01    0.7928919220E+02    0.7746840668E+02    0    0
   22    1    1    2    0    0    0.4630030162E-04   -0.4874878141E-04    0.1025432587E+01    0.1025432587E+01    0.0000000000E+00    0    0
   22    1    1    2    0    0   -0.8032917322E-05   -0.7262019153E-05   -0.1333820969E+00    0.1333820969E+00    0.0000000000E+00    0    0
   22    1    1    2    0    0   -0.2405340492E-03    0.2124178864E-03    0.9481670568E-03    0.1000998891E-02    0.0000000000E+00    0    0
   15    2    3    3    0    0    0.3589408112E+02   -0.2652323341E+02    0.7210493684E+00    0.4467152023E+02    0.1777029991E+01    0    0
  -16    1    3    3    0    0   -0.1984116364E+02    0.2849967575E+02    0.3267151117E+01    0.3487947083E+02    0.0000000000E+00    0    0
   16    1    4    4    0    0   -0.2137690353E+02    0.3120903397E+02    0.1442839050E+02    0.4048646927E+02    0.0000000000E+00    0    0
  -15    2    4    4    0    0    0.5324189186E+01   -0.3318563080E+02   -0.1930958939E+02    0.3880272293E+02    0.1777029991E+01    0    0
   16    1    8    8    0    0    0.5931347370E+01   -0.4838552475E+01   -0.8079668880E-01    0.7654998302E+01    0.6103515625E-04    0    0
  -24    2    8    8    0    0    0.2996414566E+02   -0.2168572426E+02    0.8018744588E+00    0.3701828003E+02    0.1260682106E+01    0    0
 -321    1   13   13    0    0    0.1044556427E+02   -0.7881153584E+01    0.5919558927E-01    0.1309464073E+02    0.4936670363E+00    0    0
  310    1   13   13    0    0    0.1951857948E+02   -0.1380456924E+02    0.7426787615E+00    0.2392363548E+02    0.4977199435E+00    0    0
  -16    1   11   11    0    0    0.2206336737E+01   -0.1443465710E+02   -0.9124160767E+01    0.1721852303E+02    0.2990099892E-03    0    0
  -13    1   11   11    0    0    0.2954372406E+01   -0.1808388519E+02   -0.9989647865E+01    0.2087005997E+02    0.1056590304E+00    0    0
   14    1   11   11    0    0    0.1636898667E+00   -0.6683980823E+00   -0.1965410411E+00    0.7156666517E+00    0.1220703125E-03    0    0
</event>
<event>
   18 9999    1    0.9119999695E+02    0.7565275169E-02    0.1185000000E+00
   11   -1    0    0    0    0    0.0000000000E+00    0.0000000000E+00    0.8000000000E+02    0.8000000000E+02    0.5109988851E-03    0    0
  -11   -1    0    0    0    0    0.0000000000E+00    0.0000000000E+00   -0.8000000000E+02    0.8000000000E+02    0.5109988851E-03    0    0
  -24    2    1    2    0    0   -0.1524781132E+02    0.6028938770E+01   -0.1935741234E+02    0.7521488953E+02    0.7080767059E+02    0    0
   24    2    1    2    0    0    0.1524781132E+02   -0.6028938770E+01    0.1935741234E+02    0.8478511047E+02    0.8090093231E+02    0    0
   15    2    3    3    0    0   -0.2699600792E+02   -0.2606893539E+02   -0.4132006645E+01    0.3779689407E+02    0.1777029991E+01    0    0
  -16    1    3    3    0    0    0.1174819756E+02    0.3209787369E+02   -0.1522540569E+02    0.3741799927E+02    0.0000000000E+00    0    0
   16    1    4    4    0    0    0.1422060394E+02    0.3034164238E+02    0.3189296150E+02    0.4626015472E+02    0.0000000000E+00    0    0
  -15    2    4    4    0    0    0.1027207375E+01   -0.3637058258E+02   -0.1253554916E+02    0.3852495575E+02    0.1777029991E+01    0    0
   16    1    5    5    0    0   -0.9594161034E+01   -0.9039360046E+01   -0.9100805521E+00    0.1321310711E+02    0.0000000000E+00    0    0
  -24    2    5    5    0    0   -0.1740291023E+02   -0.1703060150E+02   -0.3222088814E+01    0.2458527565E+02    0.1072936893E+01    0    0
  111    1   10   10    0    0   -0.5976622581E+01   -0.5799005032E+01   -0.1273368239E+01    0.8425446510E+01    0.1349642277E+00    0    0
  111    1   10   10    0    0   -0.1932116032E+01   -0.2046885014E+01   -0.2234017253E+00    0.2826823950E+01    0.1349638104E+00    0    0
  111    1   10   10    0    0   -0.4292079926E+01   -0.3842997551E+01   -0.6870931387E+00    0.5803524494E+01    0.1349639595E+00    0    0
 -211    1   10   10    0    0   -0.5202092648E+01   -0.5341713428E+01   -0.1038225770E+01    0.7529479504E+01    0.1395678967E+00    0    0
  -16    1    8    8    0    0    0.5944412351E+00   -0.8996010780E+01   -0.3516590834E+01    0.9677188873E+01    0.2114319796E-03    0    0
   24    2    8    8    0    0    0.4328065515E+00   -0.2737600136E+02   -0.9019451141E+01    0.2884928131E+02    0.1139208078E+01    0    0
  321    1   16   16    0    0    0.1772712022E+00   -0.1765121460E+02   -0.6024951458E+01    0.1865852356E+02    0.4936669767E+00    0    0
  130    1   16   16    0    0    0.2555354536E+00   -0.9724786758E+01   -0.2994499683E+01    0.1019075680E+02    0.4977199733E+00    0    0
</event>
<event>
   18 9999    1    0.9119999695E+02    0.7565275169E-02    0.1185000000E+00
   11   -1    0    0    0    0    0.0000000000E+00    0.0000000000E+00    0.8000000000E+02    0.8000000000E+02    0.5109988851E-03    0    0
  -11   -1    0    0    0    0    0.0000000000E+00    0.0000000000E+00   -0.8000000000E+02    0.8000000000E+02    0.5109988851E-03    0    0
  -24    2    1    2    0    0    0.4579028130E+01    0.1300280213E+01   -0.3300487995E+00    0.8008796692E+02    0.7994570160E+02    0    0
   24    2    1    2    0    0   -0.4579028130E+01   -0.1300280213E+01    0.3300487995E+00    0.7991203308E+02    0.7976945496E+02    0    0
   15    2    3    3    0    0    0.1290272141E+02    0.3905028915E+02    0.3085726023E+01    0.4128056335E+02    0.1777029991E+01    0    0
  -16    1    3    3    0    0   -0.8323693275E+01   -0.3775001144E+02   -0.3415774822E+01    0.3880740356E+02    0.0000000000E+00    0    0
   16    1    4    4    0    0   -0.6731220245E+01    0.3887014389E+02    0.2955775261E+01    0.3955924606E+02    0.0000000000E+00    0    0
  -15    2    4    4    0    0    0.2152191639E+01   -0.4017042542E+02   -0.2625726461E+01    0.4035278320E+02    0.1777029991E+01    0    0
   16    1    5    5    0    0    0.2913425922E+01    0.8651173592E+01    0.9381420612E+00    0.9176653862E+01    0.2283726499E-03    0    0
  -24    2    5    5    0    0    0.9989803314E+01    0.3040065575E+02    0.2147705317E+01    0.3210553741E+02    0.1468614817E+01    0    0
 -211    1   10   10    0    0    0.1314568400E+01    0.4474271297E+01    0.5109136701E+00    0.4693367958E+01    0.1395680159E+00    0    0
 -211    1   10   10    0    0    0.1519053459E+01    0.4851312160E+01    0.5765088797E+00    0.5118065357E+01    0.1395679861E+00    0    0
  211    1   10   10    0    0    0.2191463709E+01    0.6047680378E+01    0.2967340350E+00    0.6440844536E+01    0.1395680308E+00    0    0
  111    1   10   10    0    0    0.1536003351E+01    0.4054618835E+01    0.1767176092E+00    0.4341507435E+01    0.1349640042E+00    0    0
  111    1   10   10    0    0    0.3428714991E+01    0.1097277355E+02    0.5868312716E+00    0.1151175213E+02    0.1349638402E+00    0    0
  -16    1    8    8    0    0    0.8820653558E+00   -0.9434802055E+01   -0.1998162270E+00    0.9478051186E+01    0.1726334885E-03    0    0
  -13    1    8    8    0    0   -0.2544250339E-01   -0.2401250124E+01    0.3735746816E-01    0.2403998613E+01    0.1056589633E+00    0    0
   14    1    8    8    0    0    0.1295653582E+01   -0.2833595276E+02   -0.2463371038E+01    0.2847232056E+02    0.1726334885E-03    0    0
</event>
<event>
   20 9999    1    0.9119999695E+02    0.7565275169E-02    0.1185000000E+00
   11   -1    0    0    0    0    0.0000000000E+00    0.0000000000E+00    0.8000000000E+02    0.8000000000E+02    0.5109988851E-03    0    0
  -11   -1    0    0    0    0    0.0000000000E+00    0.0000000000E+00   -0.8000000000E+02    0.8000000000E+02    0.5109988851E-03    0    0
  -24    2    1    2    0    0    0.8539564133E+01    0.8439385414E+01   -0.7817333221E+01    0.8097980499E+02    0.7970239258E+02    0    0
   24    2    1    2    0    0   -0.8539568901E+01   -0.8439380646E+01    0.7818077087E+01    0.7901944733E+02    0.7770973969E+02    0    0
   22    1    1    2    0    0    0.4967646419E-05   -0.4853309747E-05   -0.5790480063E-03    0.5790896248E-03    0.0000000000E+00    0    0
   22    1    1    2    0    0   -0.1103754386E-06   -0.1219891601E-06   -0.1651506609E-03    0.1651507482E-03    0.0000000000E+00    0    0
   15    2    3    3    0    0   -0.2801498795E+02    0.2203971291E+02    0.1144515419E+02    0.3747983170E+02    0.1777029991E+01    0    0
  -16    1    3    3    0    0    0.3655455017E+02   -0.1360032749E+02   -0.1926248741E+02    0.4349997330E+02    0.0000000000E+00    0    0
   16    1    4    4    0    0   -0.4309572983E+02   -0.8763277054E+01    0.2966088533E+01    0.4407759857E+02    0.0000000000E+00    0    0
  -15    2    4    4    0    0    0.3455616379E+02    0.3238965869E+00    0.4851988792E+01    0.3494185257E+02    0.1777029991E+01    0    0
   16    1    7    7    0    0   -0.2284265995E+01    0.1936262965E+01    0.7415486574E+00    0.3084944010E+01    0.1614838402E-03    0    0
  -24    2    7    7    0    0   -0.2573182678E+02    0.2010431862E+02    0.1070405674E+02    0.3439636612E+02    0.1490864754E+01    0    0
 -321    1   12   12    0    0   -0.7801925182E+01    0.5670332432E+01    0.3188984632E+01    0.1017035103E+02    0.4936670661E+00    0    0
  111    1   12   12    0    0   -0.4492294788E+01    0.3726309538E+01    0.1722943544E+01    0.6087104797E+01    0.1349643618E+00    0    0
  310    1   12   12    0    0   -0.1343760490E+02    0.1070767498E+02    0.5792127609E+01    0.1813890839E+02    0.4977200627E+00    0    0
  -16    1   10   10    0    0    0.1132676411E+02    0.1011030599E+00    0.1688488603E+01    0.1145237064E+02    0.4505866382E-03    0    0
   24    2   10   10    0    0    0.2323075867E+02    0.2228062600E+00    0.3163691044E+01    0.2349085617E+02    0.1446902990E+01    0    0
  321    1   17   17    0    0    0.5974570274E+01    0.1775063872E+00    0.1029689193E+01    0.6085307598E+01    0.4936669767E+00    0    0
  211    1   17   17    0    0    0.2730148315E+01    0.1733597070E+00    0.3516744375E+00    0.2761687279E+01    0.1395673752E+00    0    0
 -321    1   17   17    0    0    0.1452604198E+02   -0.1280598044E+00    0.1782327652E+01    0.1464386177E+02    0.4936671257E+00    0    0
</event>
<event>
   19 9999    1    0.9119999695E+02    0.7565275169E-02    0.1185000000E+00
   11   -1    0    0    0    0    0.0000000000E+00    0.0000000000E+00    0.8000000000E+02    0.8000000000E+02    0.5109988851E-03    0    0
  -11   -1    0    0    0    0    0.0000000000E+00    0.0000000000E+00   -0.8000000000E+02    0.8000000000E+02    0.5109988851E-03    0    0
  -24    2    1    2    0    0   -0.1024920464E+02    0.2415946007E+02    0.1397197533E+02    0.8623180389E+02    0.8094431305E+02    0    0
   24    2    1    2    0    0    0.1007380676E+02   -0.2384354782E+02   -0.1513804245E+02    0.7254743195E+02    0.6606037140E+02    0    0
   22    1    1    2    0    0    0.1753980219E+00   -0.3159133494E+00    0.1166067839E+01    0.1220770240E+01    0.0000000000E+00    0    0
   15    2    3    3    0    0   -0.3389802170E+02    0.2385951519E+01    0.3420511627E+02    0.4824848557E+02    0.1777029991E+01    0    0
  -16    1    3    3    0    0    0.2364881706E+02    0.2177350807E+02   -0.2023314095E+02    0.3798331451E+02    0.0000000000E+00    0    0
   16    1    4    4    0    0   -0.4442422867E+01   -0.3250256348E+02   -0.2265082359E+01    0.3288285446E+02    0.0000000000E+00    0    0
  -15    2    4    4    0    0   -0.7464702129E+01    0.4856931686E+01   -0.1470393467E+02    0.1728222275E+02    0.1777029991E+01    0    0
   22    1    4    4    0    0    0.2198093224E+02    0.3802085400E+01    0.1830974340E+01    0.2238235283E+02    0.0000000000E+00    0    0
   16    1    6    6    0    0   -0.5420990467E+01    0.9849801660E+00    0.5769904137E+01    0.7978039742E+01    0.3112194536E-03    0    0
 -321    1    6    6    0    0   -0.2847836685E+02    0.1401065350E+01    0.2843655968E+02    0.4027234650E+02    0.4936670363E+00    0    0
  -16    1    9    9    0    0   -0.1565426469E+01    0.1191166520E+01   -0.3493163824E+01    0.4008944988E+01    0.0000000000E+00    0    0
   24    2    9    9    0    0   -0.5899569035E+01    0.3665957451E+01   -0.1121135044E+02    0.1327395916E+02    0.1503121376E+01    0    0
  211    1   14   14    0    0   -0.6927450299E+00    0.1911627203E+00   -0.1026687264E+01    0.1260954380E+01    0.1395680606E+00    0    0
  211    1   14   14    0    0   -0.3342824221E+01    0.2299160004E+01   -0.6165149212E+01    0.7381678581E+01    0.1395680457E+00    0    0
  211    1   14   14    0    0   -0.8970733285E+00    0.5734016895E+00   -0.1443114519E+01    0.1798774838E+01    0.1395680159E+00    0    0
 -211    1   14   14    0    0   -0.4390694201E+00    0.2234913260E+00   -0.1163098931E+01    0.1270830512E+01    0.1395679861E+00    0    0
 -211    1   14   14    0    0   -0.5278905034E+00    0.3787533045E+00   -0.1413351655E+01    0.1561782718E+01    0.1395680308E+00    0    0
</event>
<event>
   15 9999    1    0.9119999695E+02    0.7565275169E-02    0.1185000000E+00
   11   -1    0    0    0    0    0.0000000000E+00    0.0000000000E+00    0.8000000000E+02    0.8000000000E+02    0.5109988851E-03    0    0
  -11   -1    0    0    0    0    0.0000000000E+00    0.0000000000E+00   -0.8000000000E+02    0.8000000000E+02    0.5109988851E-03    0    0
  -24    2    1    2    0    0   -0.4232101738E+00    0.1258545780E+02    0.1327117348E+02    0.7865302277E+02    0.7649575806E+02    0    0
   24    2    1    2    0    0    0.4232101738E+00   -0.1258545780E+02   -0.1327117348E+02    0.8134697723E+02    0.7926306915E+02    0    0
   15    2    3    3    0    0    0.3063493013E+01    0.3726667786E+02   -0.1556085491E+02    0.4053995895E+02    0.1777029991E+01    0    0
  -16    1    3    3    0    0   -0.3486703157E+01   -0.2468121910E+02    0.2883202744E+02    0.3811306381E+02    0.0000000000E+00    0    0
   16    1    4    4    0    0    0.2368738365E+02    0.1991528511E+02    0.1291183662E+02    0.3353246307E+02    0.0000000000E+00    0    0
  -15    2    4    4    0    0   -0.2326417351E+02   -0.3250074005E+02   -0.2618301010E+02    0.4781451416E+02    0.1777029991E+01    0    0
   16    1    5    5    0    0    0.4888163209E+00    0.6622364998E+01   -0.2464823008E+01    0.7083078861E+01    0.8631674427E-04    0    0
  -24    2    5    5    0    0    0.2574797392E+01    0.3064577866E+02   -0.1309664440E+02    0.3345847321E+02    0.1467690468E+01    0    0
  221    1   10   10    0    0    0.2117995739E+01    0.2318101692E+02   -0.9779213905E+01    0.2525429916E+02    0.5487998724E+00    0    0
 -211    1   10   10    0    0    0.7377620786E-01    0.5082137108E+01   -0.2160467386E+01    0.5524550438E+01    0.1395680159E+00    0    0
  111    1   10   10    0    0    0.3830254972E+00    0.2382625103E+01   -0.1156963587E+01    0.2679625273E+01    0.1349639744E+00    0    0
  -16    1    8    8    0    0   -0.2141824913E+02   -0.3008804703E+02   -0.2364339447E+02    0.4385250473E+02    0.1220703125E-03    0    0
  211    1    8    8    0    0   -0.1846840143E+01   -0.2413976669E+01   -0.2540647507E+01    0.3963895798E+01    0.1395679116E+00    0    0
</event>
<event>
   20 9999    1    0.9119999695E+02    0.7565275169E-02    0.1185000000E+00
   11   -1    0    0    0    0    0.0000000000E+00    0.0000000000E+00    0.8000000000E+02    0.8000000000E+02    0.5109988851E-03    0    0
  -11   -1    0    0    0    0    0.0000000000E+00    0.0000000000E+00   -0.8000000000E+02    0.8000000000E+02    0.5109988851E-03    0    0
  -24    2    1    2    0    0   -0.7471781254E+01    0.1958171272E+02   -0.2664229202E+02    0.8741699219E+02    0.8057696533E+02    0    0
   24    2    1    2    0    0    0.7421664238E+01   -0.1958733940E+02    0.2404582977E+02    0.6945435333E+02    0.6170056534E+02    0    0
   22    1    1    2    0    0    0.5011071637E-01    0.5622592289E-02    0.2862338066E+01    0.2862782001E+01    0.0000000000E+00    0    0
   22    1    1    2    0    0    0.6330109954E-05    0.4635025562E-05   -0.2658763528E+00    0.2658763528E+00    0.0000000000E+00    0    0
   15    2    3    3    0    0    0.3740076542E+01    0.3373064423E+02    0.1857516098E+02    0.3872904587E+02    0.1777029991E+01    0    0
  -16    1    3    3    0    0   -0.1121185780E+02   -0.1414893150E+02   -0.4521745300E+02    0.4868794632E+02    0.0000000000E+00    0    0
   16    1    4    4    0    0   -0.1594908142E+02    0.1590005779E+02    0.1025191498E+02    0.2474443054E+02    0.0000000000E+00    0    0
  -15    2    4    4    0    0    0.2337074661E+02   -0.3548739624E+02    0.1379391575E+02    0.4470992279E+02    0.1777029991E+01    0    0
   16    1    7    7    0    0    0.1096911192E+01    0.1070410824E+02    0.5958662033E+01    0.1229987049E+02    0.2441406250E-03    0    0
  -24    2    7    7    0    0    0.2643312454E+01    0.2302786255E+02    0.1261722946E+02    0.2643069839E+02    0.1455268145E+01    0    0
 -321    1   12   12    0    0    0.1167707324E+01    0.7733176708E+01    0.4376233578E+01    0.8975561142E+01    0.4936670065E+00    0    0
 -211    1   12   12    0    0    0.7866755128E+00    0.6055020332E+01    0.3160357475E+01    0.6876733780E+01    0.1395685226E+00    0    0
  321    1   12   12    0    0    0.6889292002E+00    0.9239663124E+01    0.5080637455E+01    0.1057840157E+02    0.4936670661E+00    0    0
  -16    1   10   10    0    0    0.3663847923E+01   -0.5566376209E+01    0.1977376461E+01    0.6951139927E+01    0.4337362770E-03    0    0
   24    2   10   10    0    0    0.1970781708E+02   -0.2992241859E+02    0.1181708145E+02    0.3776054001E+02    0.1570314765E+01    0    0
  130    1   17   17    0    0    0.3760376215E+01   -0.5760848522E+01    0.2106244326E+01    0.7211920261E+01    0.4977200329E+00    0    0
  211    1   17   17    0    0    0.2096088409E+01   -0.2861118555E+01    0.1084089279E+01    0.3711376429E+01    0.1395679861E+00    0    0
  130    1   17   17    0    0    0.1385135269E+02   -0.2130044937E+02    0.8626748085E+01    0.2683724403E+02    0.4977200329E+00    0    0
</event>
<event>
   22 9999    1    0.9119999695E+02    0.7565275169E-02    0.1185000000E+00
   11   -1    0    0    0    0    0.0000000000E+00    0.0000000000E+00    0.8000000000E+02    0.8000000000E+02    0.5109988851E-03    0    0
  -11   -1    0    0    0    0    0.0000000000E+00    0.0000000000E+00   -0.8000000000E+02    0.8000000000E+02    0.5109988851E-03    0    0
  -24    2    1    2    0    0    0.1082295322E+02   -0.5068832040E+00   -0.2928277397E+02    0.8542361450E+02    0.7951301575E+02    0    0
   24    2    1    2    0    0   -0.1082295322E+02    0.5068832040E+00    0.2928277397E+02    0.7457638550E+02    0.6772564697E+02    0    0
   15    2    3    3    0    0    0.3241281509E+02   -0.2760100555E+02   -0.2754192924E+02    0.5073580551E+02    0.1777029991E+01    0    0
  -16    1    3    3    0    0   -0.2158986282E+02    0.2709412193E+02   -0.1740844846E+01    0.3468780899E+02    0.0000000000E+00    0    0
   16    1    4    4    0    0    0.4027681351E+01    0.2174268150E+02    0.4060980606E+02    0.4623983765E+02    0.0000000000E+00    0    0
  -15    2    4    4    0    0   -0.1485063457E+02   -0.2123579788E+02   -0.1132703114E+02    0.2833654785E+02    0.1777029991E+01    0    0
   16    1    5    5    0    0    0.1207895041E+01   -0.1110617042E+01   -0.1250071883E+01    0.2062803984E+01    0.5373174208E-03    0    0
  -24    2    5    5    0    0    0.3120619583E+02   -0.2649147415E+02   -0.2629294014E+02    0.4867499542E+02    0.1520407557E+01    0    0
 -211    1   10   10    0    0    0.6446869850E+01   -0.5818725586E+01   -0.5576815128E+01    0.1032182407E+02    0.1395681202E+00    0    0
 -211    1   10   10    0    0    0.4422842979E+01   -0.3577959299E+01   -0.3970757246E+01    0.6939000130E+01    0.1395679265E+00    0    0
  211    1   10   10    0    0    0.1828903317E+01   -0.1433011889E+01   -0.1421659827E+01    0.2727454185E+01    0.1395680159E+00    0    0
  111    1   10   10    0    0    0.5414582253E+01   -0.4518643379E+01   -0.4224434376E+01    0.8221916199E+01    0.1349639744E+00    0    0
  111    1   10   10    0    0    0.1309299850E+02   -0.1114313316E+02   -0.1109927273E+02    0.2046480179E+02    0.1349639893E+00    0    0
  -16    1    8    8    0    0   -0.2674155712E+01   -0.3451916695E+01   -0.2173673868E+01    0.4877673149E+01    0.8631674427E-04    0    0
   24    2    8    8    0    0   -0.1217706299E+02   -0.1778471565E+02   -0.9153802872E+01    0.2345998955E+02    0.1414911389E+01    0    0
  211    1   17   17    0    0   -0.1915538430E+01   -0.3071058512E+01   -0.1709765673E+01    0.4005429268E+01    0.1395679563E+00    0    0
  211    1   17   17    0    0   -0.7315925956E+00   -0.1293017983E+01   -0.6789701581E+00    0.1639391065E+01    0.1395679563E+00    0    0
  211    1   17   17    0    0   -0.2695813179E+01   -0.4316131592E+01   -0.2099799871E+01    0.5506817341E+01    0.1395680159E+00    0    0
 -211    1   17   17    0    0   -0.5472537041E+01   -0.7211343765E+01   -0.3712757587E+01    0.9785509109E+01    0.1395677775E+00    0    0
 -211    1   17   17    0    0   -0.1361581445E+01   -0.1893164158E+01   -0.9525098205E+00    0.2522841454E+01    0.1395679861E+00    0    0
</event>
<event>
   19 9999    1    0.9119999695E+02    0.7565275169E-02    0.1185000000E+00
   11   -1    0    0    0    0    0.0000000000E+00    0.0000000000E+00    0.8000000000E+02    0.8000000000E+02    0.5109988851E-03    0    0
  -11   -1    0    0    0    0    0.0000000000E+00    0.0000000000E+00   -0.8000000000E+02    0.8000000000E+02    0.5109988851E-03    0    0
  -24    2    1    2    0    0    0.1405630779E+02    0.1074268627E+02    0.5770592690E+01    0.8535980225E+02    0.8330673218E+02    0    0
   24    2    1    2    0    0   -0.1405630779E+02   -0.1074268627E+02   -0.5770592690E+01    0.7464019775E+02    0.7228329468E+02    0    0
   15    2    3    3    0    0    0.3019220352E+02   -0.1522618103E+02    0.3085671043E+02    0.4581157303E+02    0.1777029991E+01    0    0
  -16    1    3    3    0    0   -0.1613589478E+02    0.2596886826E+02   -0.2508611870E+02    0.3954822922E+02    0.0000000000E+00    0    0
   16    1    4    4    0    0    0.2568633652E+02   -0.1410281277E+02    0.1105009556E+02    0.3131743622E+02    0.0000000000E+00    0    0
  -15    2    4    4    0    0   -0.3974264526E+02    0.3360126972E+01   -0.1682068825E+02    0.4332276154E+02    0.1777029991E+01    0    0
   16    1    5    5    0    0    0.6686098576E+01   -0.3534542561E+01    0.6702319622E+01    0.1010534477E+02    0.0000000000E+00    0    0
  -24    2    5    5    0    0    0.2350729370E+02   -0.1169223785E+02    0.2415560532E+02    0.3570803070E+02    0.1506293535E+01    0    0
 -211    1   10   10    0    0    0.4021818638E+01   -0.2085067511E+01    0.4041979313E+01    0.6072858334E+01    0.1395679861E+00    0    0
 -211    1   10   10    0    0    0.3577599764E+01   -0.1792360067E+01    0.3634578466E+01    0.5407533169E+01    0.1395680010E+00    0    0
  211    1   10   10    0    0    0.6495767117E+01   -0.3158470869E+01    0.6861797333E+01    0.9963667870E+01    0.1395679712E+00    0    0
  111    1   10   10    0    0    0.5249138832E+01   -0.2336731672E+01    0.5134886742E+01    0.7707077980E+01    0.1349640042E+00    0    0
  111    1   10   10    0    0    0.2983101130E+01   -0.1785255313E+01    0.3137928009E+01    0.4685172081E+01    0.1349639446E+00    0    0
  111    1   10   10    0    0    0.1179867625E+01   -0.5343526006E+00    0.1344435334E+01    0.1871721625E+01    0.1349640042E+00    0    0
  -16    1    8    8    0    0   -0.1880711174E+02    0.1022405505E+01   -0.7961859226E+01    0.2044856834E+02    0.1012153589E-03    0    0
  -13    1    8    8    0    0   -0.1913426280E+01    0.1725015193E+00   -0.1103828073E+01    0.2218232870E+01    0.1056591347E+00    0    0
   14    1    8    8    0    0   -0.1902367401E+02    0.2165352345E+01   -0.7755664825E+01    0.2065766716E+02    0.2283726499E-03    0    0
</event>
<event>
   18 9999    1    0.9119999695E+02    0.7565275169E-02    0.1185000000E+00
   11   -1    0    0    0    0    0.0000000000E+00    0.0000000000E+00    0.8000000000E+02    0.8000000000E+02    0.5109988851E-03    0    0
  -11   -1    0    0    0    0    0.0000000000E+00    0.0000000000E+00   -0.8000000000E+02    0.8000000000E+02    0.5109988851E-03    0    0
  -24    2    1    2    0    0   -0.6955156803E+01    0.3875117302E+01   -0.7642615318E+01    0.7906501007E+02    0.7829096222E+02    0    0
   24    2    1    2    0    0    0.6955156803E+01   -0.3875117302E+01    0.7642615318E+01    0.8093498993E+02    0.8017900085E+02    0    0
   15    2    3    3    0    0    0.1993928909E+02    0.1909563446E+02   -0.3008603096E+02    0.4087230682E+02    0.1777029991E+01    0    0
  -16    1    3    3    0    0   -0.2689444733E+02   -0.1522051716E+02    0.2244341469E+02    0.3819269943E+02    0.0000000000E+00    0    0
   16    1    4    4    0    0    0.2895242882E+02   -0.1783119202E+02    0.3091641998E+02    0.4595671463E+02    0.0000000000E+00    0    0
  -15    2    4    4    0    0   -0.2199727249E+02    0.1395607567E+02   -0.2327380562E+02    0.3497827530E+02    0.1777029991E+01    0    0
   16    1    5    5    0    0    0.7916462421E+00    0.5021512508E+00   -0.9728215337E+00    0.1351014972E+01    0.4831280676E-03    0    0
  -24    2    5    5    0    0    0.1914842796E+02    0.1859423447E+02   -0.2911439323E+02    0.3952290344E+02    0.1415637732E+01    0    0
 -211    1   10   10    0    0    0.1823637962E+01    0.2030390501E+01   -0.2645827293E+01    0.3803685427E+01    0.1395680606E+00    0    0
  310    1   10   10    0    0    0.1064277554E+02    0.1008655071E+02   -0.1579661655E+02    0.2155894279E+02    0.4977200627E+00    0    0
  111    1   10   10    0    0    0.6682015419E+01    0.6477293968E+01   -0.1067194939E+02    0.1416027546E+02    0.1349640042E+00    0    0
  -16    1    8    8    0    0   -0.5597798347E+01    0.3304705381E+01   -0.6011376858E+01    0.8853986740E+01    0.2516543900E-03    0    0
   24    2    8    8    0    0   -0.1640034103E+02    0.1065191936E+02   -0.1726334572E+02    0.2612566948E+02    0.1446689725E+01    0    0
  321    1   15   15    0    0   -0.7236186504E+01    0.4271766663E+01   -0.7347723007E+01    0.1117332268E+02    0.4936670065E+00    0    0
  211    1   15   15    0    0   -0.8531800270E+01    0.5886293411E+01   -0.9012494087E+01    0.1373625183E+02    0.1395681798E+00    0    0
 -211    1   15   15    0    0   -0.6323531866E+00    0.4938591719E+00   -0.9031269550E+00    0.1216094136E+01    0.1395679712E+00    0    0
</event>
<event>
   23 9999    1    0.9119999695E+02    0.7565275169E-02    0.1185000000E+00
   11   -1    0    0    0    0    0.0000000000E+00    0.0000000000E+00    0.8000000000E+02    0.8000000000E+02    0.5109988851E-03    0    0
  -11   -1    0    0    0    0    0.0000000000E+00    0.0000000000E+00   -0.8000000000E+02    0.8000000000E+02    0.5109988851E-03    0    0
  -24    2    1    2    0    0    0.1937920690E+01   -0.2704182434E+02    0.2094267273E+02    0.8544981384E+02    0.7828192139E+02    0    0
   24    2    1    2    0    0   -0.1937622547E+01    0.2704166603E+02   -0.1549237823E+02    0.6909934998E+02    0.6164171219E+02    0    0
   22    1    1    2    0    0   -0.1765954657E-03    0.1327624923E-03   -0.5447653770E+01    0.5447653770E+01    0.0000000000E+00    0    0
   22    1    1    2    0    0    0.1576928526E-06    0.9863327932E-07   -0.2894667676E-02    0.2894667676E-02    0.0000000000E+00    0    0
   22    1    1    2    0    0   -0.1217213066E-03    0.2733094334E-04    0.2538856061E-03    0.2828797733E-03    0.0000000000E+00    0    0
   15    2    3    3    0    0    0.2301035118E+02   -0.4173792267E+02   -0.6178641796E+01    0.4809224319E+02    0.1777029991E+01    0    0
  -16    1    3    3    0    0   -0.2107242966E+02    0.1469609642E+02    0.2712131500E+02    0.3735757446E+02    0.0000000000E+00    0    0
   16    1    4    4    0    0   -0.3054202318E+01   -0.1921571732E+02   -0.1155002403E+02    0.2262686348E+02    0.0000000000E+00    0    0
  -15    2    4    4    0    0    0.1116579771E+01    0.4625738144E+02   -0.3942354441E+01    0.4647248840E+02    0.1777029991E+01    0    0
   16    1    8    8    0    0    0.1902589083E+01   -0.3684369564E+01   -0.7984408140E+00    0.4222787380E+01    0.3452669771E-03    0    0
  -24    2    8    8    0    0    0.2110866737E+02   -0.3805519485E+02   -0.5380444050E+01    0.4387134552E+02    0.1404393077E+01    0    0
 -211    1   13   13    0    0    0.1150560284E+02   -0.1989536858E+02   -0.2629804134E+01    0.2313309288E+02    0.1395676434E+00    0    0
  310    1   13   13    0    0    0.8562164307E+01   -0.1601743507E+02   -0.2400205374E+01    0.1832696342E+02    0.4977199733E+00    0    0
  111    1   13   13    0    0    0.1040899396E+01   -0.2142388821E+01   -0.3504345715E+00    0.2411290169E+01    0.1349639744E+00    0    0
  -16    1   11   11    0    0   -0.1169801783E-01    0.7558191299E+01   -0.4443662763E+00    0.7571251869E+01    0.0000000000E+00    0    0
   24    2   11   11    0    0    0.1128321767E+01    0.3870101166E+02   -0.3498143196E+01    0.3890306473E+02    0.1473122001E+01    0    0
  211    1   18   18    0    0    0.2904698253E+00    0.4576912880E+01   -0.5133833289E+00    0.4616876125E+01    0.1395680159E+00    0    0
  211    1   18   18    0    0    0.2368959635E+00    0.7377876282E+01   -0.5134366751E+00    0.7400829315E+01    0.1395679861E+00    0    0
  211    1   18   18    0    0    0.6197174639E-01    0.4614035130E+01   -0.1736261249E+00    0.4619824886E+01    0.1395680457E+00    0    0
 -211    1   18   18    0    0   -0.5233633146E-01    0.8037520409E+01   -0.8399115801E+00    0.8082660675E+01    0.1395680159E+00    0    0
 -211    1   18   18    0    0    0.5913205147E+00    0.1409466839E+02   -0.1457785606E+01    0.1418287468E+02    0.1395680457E+00    0    0
</event>
<event>
   19 9999    1    0.9119999695E+02    0.7565275169E-02    0.1185000000E+00
   11   -1    0    0    0    0    0.0000000000E+00    0.0000000000E+00    0.8000000000E+02    0.8000000000E+02    0.5109988851E-03    0    0
  -11   -1    0    0    0    0    0.0000000000E+00    0.0000000000E+00   -0.8000000000E+02    0.8000000000E+02    0.5109988851E-03    0    0
  -24    2    1    2    0    0    0.1486346531E+02   -0.2626584435E+02    0.6566862583E+01    0.7944499969E+02    0.7319540405E+02    0    0
   24    2    1    2    0    0   -0.1483623219E+02    0.2622245216E+02   -0.7336424828E+01    0.7978262329E+02    0.7350995636E+02    0    0
   22    1    1    2    0    0   -0.2723358013E-01    0.4339315742E-01    0.7701160908E+00    0.7718182206E+00    0.0000000000E+00    0    0
   22    1    1    2    0    0   -0.1262811100E-07    0.3141242644E-07   -0.5538653932E-03    0.5538653932E-03    0.0000000000E+00    0    0
   15    2    3    3    0    0   -0.2903247833E+02   -0.1741344643E+02   -0.1546976686E+01    0.3393617630E+02    0.1777029991E+01    0    0
  -16    1    3    3    0    0    0.4389594650E+02   -0.8852397919E+01    0.8113839149E+01    0.4550882721E+02    0.0000000000E+00    0    0
   16    1    4    4    0    0   -0.2616103554E+02   -0.5017934322E+01    0.2266692543E+02    0.3497669220E+02    0.0000000000E+00    0    0
  -15    2    4    4    0    0    0.1132480335E+02    0.3124038696E+02   -0.3000335121E+02    0.4480593491E+02    0.1777029991E+01    0    0
   16    1    7    7    0    0   -0.1708848381E+02   -0.1033538246E+02   -0.5649439692E+00    0.1997887802E+02    0.2283726499E-03    0    0
  -24    2    7    7    0    0   -0.1194513702E+02   -0.7078750134E+01   -0.9820935726E+00    0.1395863152E+02    0.1041097760E+01    0    0
  111    1   12   12    0    0   -0.1887647033E+01   -0.1022208571E+01   -0.1359913647E+00    0.2155186892E+01    0.1349638551E+00    0    0
  111    1   12   12    0    0   -0.5767524242E+01   -0.3270418644E+01   -0.3582445085E+00    0.6641274452E+01    0.1349641383E+00    0    0
 -321    1   12   12    0    0   -0.4289965630E+01   -0.2786123037E+01   -0.4878577292E+00    0.5162169933E+01    0.4936669469E+00    0    0
  -16    1   10   10    0    0    0.7103273392E+01    0.1807569885E+02   -0.1782290840E+02    0.2635988235E+02    0.1419149485E-03    0    0
  323    2   10   10    0    0    0.4221975803E+01    0.1316591549E+02   -0.1218162346E+02    0.1844781494E+02    0.8737785816E+00    0    0
  211    1   17   17    0    0    0.2711219549E+01    0.8044958115E+01   -0.7568406582E+01    0.1137419510E+02    0.1395679861E+00    0    0
  130    1   17   17    0    0    0.1510756969E+01    0.5120958805E+01   -0.4613218307E+01    0.7073620796E+01    0.4977200329E+00    0    0
</event>
<event>
   22 9999    1    0.9119999695E+02    0.7565275169E-02    0.1185000000E+00
   11   -1    0    0    0    0    0.0000000000E+00    0.0000000000E+00    0.8000000000E+02    0.8000000000E+02    0.5109988851E-03    0    0
  -11   -1    0    0    0    0    0.0000000000E+00    0.0000000000E+00   -0.8000000000E+02    0.8000000000E+02    0.5109988851E-03    0    0
  -24    2    1    2    0    0    0.3556826591E+01    0.8666944504E+01    0.8205392838E+01    0.7906106567E+02    0.7807405090E+02    0    0
   24    2    1    2    0    0   -0.3561879635E+01   -0.8676314354E+01   -0.8056228638E+01    0.8078939056E+02    0.7983769226E+02    0    0
   22    1    1    2    0    0    0.5053085741E-02    0.9369459003E-02   -0.1491646767E+00    0.1495440453E+00    0.0000000000E+00    0    0
   15    2    3    3    0    0   -0.9575673103E+01    0.2606673622E+02    0.3487477875E+02    0.4461587524E+02    0.1777029991E+01    0    0
  -16    1    3    3    0    0    0.1313249969E+02   -0.1739978981E+02   -0.2666938400E+02    0.3444519424E+02    0.0000000000E+00    0    0
   16    1    4    4    0    0   -0.2199671745E+01    0.3206647491E+02   -0.2050851250E+02    0.3812737274E+02    0.0000000000E+00    0    0
  -15    2    4    4    0    0   -0.1362207890E+01   -0.4074279022E+02    0.1245228386E+02    0.4266201782E+02    0.1777029991E+01    0    0
   16    1    6    6    0    0   -0.1082813978E+01    0.2842375278E+01    0.3656579494E+01    0.4756275654E+01    0.3051757812E-04    0    0
  -24    2    6    6    0    0   -0.8493235588E+01    0.2322538567E+02    0.3121957016E+02    0.3986135483E+02    0.1646912336E+01    0    0
 -211    1   11   11    0    0   -0.1412845016E+01    0.4036621094E+01    0.5206517220E+01    0.6739268780E+01    0.1395680010E+00    0    0
 -211    1   11   11    0    0   -0.9302407503E+00    0.3264860630E+01    0.4602910519E+01    0.5721095085E+01    0.1395679116E+00    0    0
 -211    1   11   11    0    0   -0.3126246929E+01    0.8257594109E+01    0.1124575520E+02    0.1429852390E+02    0.1395679712E+00    0    0
  211    1   11   11    0    0   -0.1037845373E+01    0.2993412018E+01    0.3958049059E+01    0.5071811199E+01    0.1395679861E+00    0    0
  211    1   11   11    0    0   -0.1690182924E+01    0.3802420616E+01    0.5188132286E+01    0.6652166367E+01    0.1395679712E+00    0    0
  111    1   11   11    0    0   -0.2958748341E+00    0.8704763651E+00    0.1018205523E+01    0.1378487825E+01    0.1349639744E+00    0    0
  -16    1    9    9    0    0   -0.4912707806E+00   -0.1735872269E+02    0.5251559258E+01    0.1814236641E+02    0.5388318677E-03    0    0
   24    2    9    9    0    0   -0.8709906936E+00   -0.2338566971E+02    0.7201214314E+01    0.2452132797E+02    0.1337872505E+01    0    0
  321    1   19   19    0    0   -0.4600674510E+00   -0.6068531513E+01    0.1986916304E+01    0.6421081066E+01    0.4936671257E+00    0    0
  211    1   19   19    0    0   -0.8033862710E-01   -0.7639498234E+01    0.2036803246E+01    0.7907998085E+01    0.1395680606E+00    0    0
 -211    1   19   19    0    0   -0.3305846453E+00   -0.9677639961E+01    0.3177494764E+01    0.1019225025E+02    0.1395680457E+00    0    0
</event>
<event>
   19 9999    1    0.9119999695E+02    0.7565275169E-02    0.1185000000E+00
   11   -1    0    0    0    0    0.0000000000E+00    0.0000000000E+00    0.8000000000E+02    0.8000000000E+02    0.5109988851E-03    0    0
  -11   -1    0    0    0    0    0.0000000000E+00    0.0000000000E+00   -0.8000000000E+02    0.8000000000E+02    0.5109988851E-03    0    0
  -24    2    1    2    0    0    0.9305503845E+01   -0.2332763672E+01    0.1635628641E+00    0.8089205933E+02    0.8032100677E+02    0    0
   24    2    1    2    0    0   -0.9302584648E+01    0.2330498219E+01    0.4533651173E+00    0.7849100494E+02    0.7790161896E+02    0    0
   22    1    1    2    0    0   -0.2919805236E-02    0.2265478252E-02   -0.6169279814E+00    0.6169390678E+00    0.0000000000E+00    0    0
   15    2    3    3    0    0    0.1761302948E+02    0.3525201797E+02    0.1091002560E+02    0.4092810822E+02    0.1777029991E+01    0    0
  -16    1    3    3    0    0   -0.8307524681E+01   -0.3758478165E+02   -0.1074646282E+02    0.3996395111E+02    0.0000000000E+00    0    0
   16    1    4    4    0    0    0.3451968002E+02    0.1786334038E+01   -0.8631682396E+00    0.3457664490E+02    0.0000000000E+00    0    0
  -15    2    4    4    0    0   -0.4276371384E+02    0.7833591104E+00    0.1225828171E+01    0.4282534027E+02    0.1777029991E+01    0    0
   22    1    4    4    0    0   -0.1058547974E+01   -0.2391949594E+00    0.9070522338E-01    0.1089020491E+01    0.0000000000E+00    0    0
   16    1    6    6    0    0    0.8402581215E+01    0.1735733414E+02    0.5122456551E+01    0.1995294380E+02    0.8631674427E-04    0    0
  -24    2    6    6    0    0    0.9211139679E+01    0.1789607239E+02    0.5787998199E+01    0.2097677612E+02    0.1187300086E+01    0    0
 -321    1   12   12    0    0    0.4857491970E+01    0.1000418949E+02    0.3000426054E+01    0.1152932358E+02    0.4936670065E+00    0    0
  130    1   12   12    0    0    0.4353649616E+01    0.7891885281E+01    0.2787573099E+01    0.9447455406E+01    0.4977200925E+00    0    0
  -16    1    9    9    0    0   -0.5293820500E+00    0.9933736920E-01    0.5491238832E-01    0.5414140224E+00    0.5868189619E-03    0    0
   24    2    9    9    0    0   -0.4223600006E+02    0.6840518117E+00    0.1170963526E+01    0.4228559113E+02    0.1533797860E+01    0    0
  211    1   16   16    0    0   -0.3799659491E+01    0.1948243678E+00    0.4253261387E+00    0.3830894709E+01    0.1395676583E+00    0    0
  111    1   16   16    0    0   -0.2251987457E+02    0.1426078975E+00    0.8856831491E-01    0.2252090454E+02    0.1349639595E+00    0    0
   22    1   16   16    0    0   -0.1591646767E+02    0.3466198742E+00    0.6570690274E+00    0.1593379688E+02    0.6103515625E-04    0    0
</event>
<event>
   20 9999    1    0.9119999695E+02    0.7565275169E-02    0.1185000000E+00
   11   -1    0    0    0    0    0.0000000000E+00    0.0000000000E+00    0.8000000000E+02    0.8000000000E+02    0.5109988851E-03    0    0
  -11   -1    0    0    0    0    0.0000000000E+00    0.0000000000E+00   -0.8000000000E+02    0.8000000000E+02    0.5109988851E-03    0    0
  -24    2    1    2    0    0    0.3340246964E+02    0.3852846861E+01    0.1536138439E+02    0.8790076447E+02    0.7974962616E+02    0    0
   24    2    1    2    0    0   -0.3340246964E+02   -0.3852857113E+01   -0.1535379314E+02    0.7209164429E+02    0.6189424133E+02    0    0
   22    1    1    2    0    0   -0.2511664263E-06    0.1036989306E-04   -0.7590935566E-02    0.7590942550E-02    0.0000000000E+00    0    0
   15    2    3    3    0    0    0.2392296219E+02   -0.2786717796E+02    0.3385265732E+02    0.4998047638E+02    0.1777029991E+01    0    0
  -16    1    3    3    0    0    0.9479505539E+01    0.3172002602E+02   -0.1849127388E+02    0.3792028809E+02    0.0000000000E+00    0    0
   16    1    4    4    0    0   -0.5082552433E+01   -0.2809800911E+02    0.5877312660E+01    0.2915258598E+02    0.0000000000E+00    0    0
  -15    2    4    4    0    0   -0.2831991577E+02    0.2424515152E+02   -0.2123110580E+02    0.4293906021E+02    0.1777029991E+01    0    0
   16    1    6    6    0    0    0.3197343349E+01   -0.4110672951E+01    0.5228304386E+01    0.7379417419E+01    0.4048614355E-03    0    0
  -24    2    6    6    0    0    0.2072656059E+02   -0.2375760269E+02    0.2862568474E+02    0.4260302353E+02    0.1254579544E+01    0    0
 -321    1   11   11    0    0    0.9182529449E+01   -0.1084216213E+02    0.1329452896E+02    0.1946431541E+02    0.4936670661E+00    0    0
 -211    1   11   11    0    0    0.1687577367E+01   -0.1709715486E+01    0.2143543243E+01    0.3222623348E+01    0.1395682245E+00    0    0
  211    1   11   11    0    0    0.9856451988E+01   -0.1120572281E+02    0.1318761158E+02    0.1991608429E+02    0.1395682842E+00    0    0
  -16    1    9    9    0    0   -0.1326845169E+02    0.1101179695E+02   -0.9867886543E+01    0.1986672211E+02    0.4977266653E-03    0    0
   24    2    9    9    0    0   -0.1505257702E+02    0.1323430920E+02   -0.1136405468E+02    0.2307402420E+02    0.1241709471E+01    0    0
  111    1   16   16    0    0   -0.3301714659E+01    0.2978085518E+01   -0.2802652359E+01    0.5257698059E+01    0.1349641532E+00    0    0
  111    1   16   16    0    0   -0.7724058628E+01    0.6597179890E+01   -0.5723819733E+01    0.1166036892E+02    0.1349639297E+00    0    0
  111    1   16   16    0    0   -0.3190737724E+01    0.2711561203E+01   -0.2250162840E+01    0.4755504131E+01    0.1349639744E+00    0    0
  211    1   16   16    0    0   -0.8360658884E+00    0.9474818707E+00   -0.5874198675E+00    0.1400453329E+01    0.1395677477E+00    0    0
</event>
<event>
   20 9999    1    0.9119999695E+02    0.7565275169E-02    0.1185000000E+00
   11   -1    0    0    0    0    0.0000000000E+00    0.0000000000E+00    0.8000000000E+02    0.8000000000E+02    0.5109988851E-03    0    0
  -11   -1    0    0    0    0    0.0000000000E+00    0.0000000000E+00   -0.8000000000E+02    0.8000000000E+02    0.5109988851E-03    0    0
  -24    2    1    2    0    0    0.8396979332E+01    0.9844719887E+01   -0.1676820159E+01    0.7945891571E+02    0.7838034821E+02    0    0
   24    2    1    2    0    0   -0.8396651268E+01   -0.9844491005E+01    0.1195494175E+01    0.8005966187E+02    0.7899811554E+02    0    0
   22    1    1    2    0    0   -0.2086072054E-03   -0.1556264469E-03    0.4812811911E+00    0.4812812805E+00    0.0000000000E+00    0    0
   22    1    1    2    0    0   -0.1187085654E-03   -0.7321644807E-04    0.4480502321E-04    0.1464918460E-03    0.0000000000E+00    0    0
   15    2    3    3    0    0   -0.1098935485E+01    0.3391721725E+02   -0.2688647461E+02    0.4333157730E+02    0.1777029991E+01    0    0
  -16    1    3    3    0    0    0.9495914459E+01   -0.2407249832E+02    0.2520965576E+02    0.3612733459E+02    0.0000000000E+00    0    0
   16    1    4    4    0    0    0.4729653835E+01   -0.2554083252E+02    0.3312505722E+02    0.4209481049E+02    0.0000000000E+00    0    0
  -15    2    4    4    0    0   -0.1312630558E+02    0.1569634056E+02   -0.3192956161E+02    0.3796484756E+02    0.1777029991E+01    0    0
   16    1    7    7    0    0   -0.3836376071E+00    0.8479324341E+01   -0.6838536739E+01    0.1090007877E+02    0.5913642235E-03    0    0
  -24    2    7    7    0    0   -0.7153411508E+00    0.2543922806E+02   -0.2004899597E+02    0.3243320465E+02    0.1511464477E+01    0    0
 -321    1   12   12    0    0   -0.3673725426E+00    0.1453132343E+02   -0.1098923874E+02    0.1822913742E+02    0.4936671257E+00    0    0
 -211    1   12   12    0    0   -0.5007812977E+00    0.9680116653E+01   -0.8071198463E+01    0.1261424446E+02    0.1395687312E+00    0    0
  211    1   12   12    0    0    0.1528127193E+00    0.1227788806E+01   -0.9885599017E+00    0.1589826107E+01    0.1395682693E+00    0    0
  -16    1   10   10    0    0   -0.2907590866E+01    0.3976033211E+01   -0.7815940380E+01    0.9238606453E+01    0.1282984449E-03    0    0
   24    2   10   10    0    0   -0.1021923161E+02    0.1172092533E+02   -0.2411487770E+02    0.2872773552E+02    0.1393821597E+01    0    0
  221    1   17   17    0    0   -0.3089786530E+01    0.3581207275E+01   -0.7130995750E+01    0.8574620247E+01    0.5487999916E+00    0    0
  211    1   17   17    0    0   -0.2420880556E+01    0.2718995571E+01   -0.6363279343E+01    0.7332421303E+01    0.1395679116E+00    0    0
  111    1   17   17    0    0   -0.4708564758E+01    0.5420722961E+01   -0.1062060356E+02    0.1282069588E+02    0.1349639595E+00    0    0
</event>
<event>
   20 9999    1    0.9119999695E+02    0.7565275169E-02    0.1185000000E+00
   11   -1    0    0    0    0    0.0000000000E+00    0.0000000000E+00    0.8000000000E+02    0.8000000000E+02    0.5109988851E-03    0    0
  -11   -1    0    0    0    0    0.0000000000E+00    0.0000000000E+00   -0.8000000000E+02    0.8000000000E+02    0.5109988851E-03    0    0
  -24    2    1    2    0    0    0.1061883640E+02    0.8556704521E+00    0.2245228577E+02    0.8982440186E+02    0.8631816864E+02    0    0
   24    2    1    2    0    0   -0.1061878777E+02   -0.8556585908E+00   -0.2314958191E+02    0.6947829437E+02    0.6463620758E+02    0    0
   22    1    1    2    0    0   -0.4508119673E-05   -0.3128830940E-05    0.5158470869E+00    0.5158470869E+00    0.0000000000E+00    0    0
   22    1    1    2    0    0   -0.1573572081E-04    0.7957669368E-05    0.1787432283E+00    0.1787432283E+00    0.0000000000E+00    0    0
   22    1    1    2    0    0   -0.1626441554E-04   -0.1003776197E-04    0.2695880830E-02    0.2695948584E-02    0.0000000000E+00    0    0
   15    2    3    3    0    0    0.1662526703E+02   -0.5342484951E+01    0.5417546463E+02    0.5694805145E+02    0.1777029991E+01    0    0
  -16    1    3    3    0    0   -0.6006430626E+01    0.6198155403E+01   -0.3172317886E+02    0.3287635040E+02    0.0000000000E+00    0    0
   16    1    4    4    0    0   -0.5977159023E+01   -0.2774574280E+02    0.6527825356E+01    0.2912327576E+02    0.0000000000E+00    0    0
  -15    2    4    4    0    0   -0.4641628265E+01    0.2689008331E+02   -0.2967740822E+02    0.4035502243E+02    0.1777029991E+01    0    0
   16    1    8    8    0    0    0.5465220928E+01   -0.9394622445E+00    0.1707658577E+02    0.1795441437E+02    0.3452669771E-03    0    0
 -321    1    8    8    0    0    0.1116070175E+02   -0.4403233051E+01    0.3710101318E+02    0.3899588013E+02    0.4936670065E+00    0    0
  -16    1   11   11    0    0   -0.1106352448E+01    0.7693564415E+01   -0.8844223022E+01    0.1177434635E+02    0.1495049946E-03    0    0
   24    2   11   11    0    0   -0.3535458565E+01    0.1919757843E+02   -0.2083435440E+02    0.2858226395E+02    0.1352414131E+01    0    0
  211    1   15   15    0    0   -0.5069092512E+00    0.2658199549E+01   -0.2569713593E+01    0.3734419584E+01    0.1395683289E+00    0    0
  211    1   15   15    0    0   -0.1211713552E+01    0.6497534275E+01   -0.7566390514E+01    0.1004768372E+02    0.1395680159E+00    0    0
 -211    1   15   15    0    0   -0.5195380449E+00    0.3984533310E+01   -0.4075974941E+01    0.5725336552E+01    0.1395679563E+00    0    0
  111    1   15   15    0    0   -0.5283925533E+00    0.2921173811E+01   -0.3083730459E+01    0.4282530308E+01    0.1349639893E+00    0    0
  111    1   15   15    0    0   -0.7689052224E+00    0.3136137247E+01   -0.3538544416E+01    0.4792294025E+01    0.1349639595E+00    0    0
</event>
<event>
   17 9999    1    0.9119999695E+02    0.7565275169E-02    0.1185000000E+00
   11   -1    0    0    0    0    0.0000000000E+00    0.0000000000E+00    0.8000000000E+02    0.8000000000E+02    0.5109988851E-03    0    0
  -11   -1    0    0    0    0    0.0000000000E+00    0.0000000000E+00   -0.8000000000E+02    0.8000000000E+02    0.5109988851E-03    0    0
  -24    2    1    2    0    0   -0.2221892834E+01   -0.2359642744E+01   -0.3124160767E+01    0.7877805328E+02    0.7864932251E+02    0    0
   24    2    1    2    0    0    0.2221890211E+01    0.2359642744E+01    0.3133442402E+01    0.8121266937E+02    0.8108744812E+02    0    0
   22    1    1    2    0    0   -0.1552634103E-05   -0.3237617420E-05   -0.7220223080E-02    0.7220224012E-02    0.0000000000E+00    0    0
   22    1    1    2    0    0    0.4173296475E-05    0.3214652907E-05   -0.2061445266E-02    0.2061452018E-02    0.0000000000E+00    0    0
   15    2    3    3    0    0    0.2770481348E+01    0.3238157272E+02   -0.2164954376E+02    0.3909095001E+02    0.1777029991E+01    0    0
  -16    1    3    3    0    0   -0.4992373943E+01   -0.3474121857E+02    0.1852538300E+02    0.3968709946E+02    0.0000000000E+00    0    0
   16    1    4    4    0    0   -0.5949685574E+01   -0.2930778885E+02    0.2731315422E+02    0.4050127792E+02    0.0000000000E+00    0    0
  -15    2    4    4    0    0    0.8171575546E+01    0.3166743088E+02   -0.2417971230E+02    0.4071138763E+02    0.1777029991E+01    0    0
   16    1    7    7    0    0    0.6075222492E+00    0.3220671892E+01   -0.2186397791E+01    0.3939815521E+01    0.7794501289E-04    0    0
  -24    2    7    7    0    0    0.2163068056E+01    0.2916217613E+02   -0.1946399879E+02    0.3515267563E+02    0.1323591828E+01    0    0
 -321    1   12   12    0    0    0.1549939156E+01    0.2255396271E+02   -0.1529327869E+02    0.2729856300E+02    0.4936670065E+00    0    0
  130    1   12   12    0    0    0.6131290197E+00    0.6608217239E+01   -0.4170721054E+01    0.7854113579E+01    0.4977200329E+00    0    0
  -16    1   10   10    0    0    0.1159144402E+01    0.3813021660E+01   -0.2398230791E+01    0.4651264668E+01    0.2729575208E-03    0    0
  -13    1   10   10    0    0    0.4235781193E+01    0.1857850456E+02   -0.1435801506E+02    0.2385930634E+02    0.1056594923E+00    0    0
   14    1   10   10    0    0    0.2776972055E+01    0.9277152061E+01   -0.7424417973E+01    0.1220242214E+02    0.8631674427E-04    0    0
</event>
<event>
   21 9999    1    0.9119999695E+02    0.7565275169E-02    0.1185000000E+00
   11   -1    0    0    0    0    0.0000000000E+00    0.0000000000E+00    0.8000000000E+02    0.8000000000E+02    0.5109988851E-03    0    0
  -11   -1    0    0    0    0    0.0000000000E+00    0.0000000000E+00   -0.8000000000E+02    0.8000000000E+02    0.5109988851E-03    0    0
  -24    2    1    2    0    0   -0.3845753193E+01    0.1243969083E+01    0.4825695992E+01    0.8071054077E+02    0.8046469116E+02    0    0
   24    2    1    2    0    0    0.3318704128E+01   -0.8839332461E+00   -0.4351533413E+01    0.7849433136E+02    0.7829833221E+02    0    0
   22    1    1    2    0    0    0.5270490646E+00   -0.3600357771E+00   -0.4741629064E+00    0.7951332927E+00    0.0000000000E+00    0    0
   15    2    3    3    0    0    0.1682158351E+01   -0.2193922997E+02    0.3553761292E+02    0.4183586121E+02    0.1777029991E+01    0    0
  -16    1    3    3    0    0   -0.5527911663E+01    0.2318319893E+02   -0.3071191788E+02    0.3887467575E+02    0.0000000000E+00    0    0
   16    1    4    4    0    0    0.2924360657E+02   -0.2442448997E+02   -0.1631314659E+02    0.4144710922E+02    0.0000000000E+00    0    0
  -15    2    4    4    0    0   -0.2592490196E+02    0.2354055595E+02    0.1196161270E+02    0.3704721832E+02    0.1777029991E+01    0    0
   16    1    6    6    0    0    0.5070128441E+00   -0.1789064884E+01    0.2694674730E+01    0.3274001837E+01    0.4766998172E-03    0    0
  -24    2    6    6    0    0    0.1175211668E+01   -0.2015102768E+02    0.3284433746E+02    0.3856350708E+02    0.9738665819E+00    0    0
  111    1   11   11    0    0    0.1409041137E+00   -0.1335279703E+01    0.2352926493E+01    0.2712435246E+01    0.1349642575E+00    0    0
  111    1   11   11    0    0    0.6238069534E+00   -0.1009277153E+02    0.1652830887E+02    0.1937669754E+02    0.1349640042E+00    0    0
  111    1   11   11    0    0    0.1347542107E+00   -0.1365194321E+01    0.2228908539E+01    0.2620718002E+01    0.1349639595E+00    0    0
 -211    1   11   11    0    0    0.2757461369E+00   -0.7357779980E+01    0.1173418808E+02    0.1385364914E+02    0.1395678967E+00    0    0
  -16    1    9    9    0    0   -0.4469646454E+01    0.4374003410E+01    0.2122657537E+01    0.6604189396E+01    0.4013326252E-03    0    0
   24    2    9    9    0    0   -0.2145627785E+02    0.1916748047E+02    0.9839426994E+01    0.3044448853E+02    0.1512747049E+01    0    0
  310    1   17   17    0    0   -0.5709495068E+01    0.5146260738E+01    0.2867599487E+01    0.8219074249E+01    0.4977199137E+00    0    0
  211    1   17   17    0    0   -0.7998672962E+01    0.7040970325E+01    0.3517732143E+01    0.1122265339E+02    0.1395678520E+00    0    0
  130    1   17   17    0    0   -0.5637945652E+01    0.5186648846E+01    0.2512841225E+01    0.8077737808E+01    0.4977200329E+00    0    0
   22    1   17   17    0    0   -0.2110158682E+01    0.1793596148E+01    0.9412509203E+00    0.2925014496E+01    0.0000000000E+00    0    0
</event>
<event>
   19 9999    1    0.9119999695E+02    0.7565275169E-02    0.1185000000E+00
   11   -1    0    0    0    0    0.0000000000E+00    0.0000000000E+00    0.8000000000E+02    0.8000000000E+02    0.5109988851E-03    0    0
  -11   -1    0    0    0    0    0.0000000000E+00    0.0000000000E+00   -0.8000000000E+02    0.8000000000E+02    0.5109988851E-03    0    0
  -24    2    1    2    0    0   -0.5784287453E+00    0.3236177826E+02    0.3656383753E+01    0.7053990936E+02    0.6256908798E+02    0    0
   24    2    1    2    0    0    0.5778144598E+00   -0.3235947037E+02   -0.6230381489E+01    0.8688608551E+02    0.8039219666E+02    0    0
   22    1    1    2    0    0    0.6142616039E-03   -0.2309860894E-02    0.2573997736E+01    0.2573998928E+01    0.0000000000E+00    0    0
   15    2    3    3    0    0    0.2483442879E+02   -0.4855713844E+01    0.6928668022E+00    0.2537645912E+02    0.1777029991E+01    0    0
  -16    1    3    3    0    0   -0.2541285706E+02    0.3721749496E+02    0.2963516951E+01    0.4516345215E+02    0.0000000000E+00    0    0
   16    1    4    4    0    0   -0.3163077354E+02   -0.4086090088E+02    0.4436069012E+01    0.5186326218E+02    0.0000000000E+00    0    0
  -15    2    4    4    0    0    0.3220858765E+02    0.8501432419E+01   -0.1066645050E+02    0.3502282715E+02    0.1777029991E+01    0    0
   16    1    6    6    0    0    0.2399781942E+01   -0.2899781764E+00   -0.1959798783E+00    0.2425169945E+01    0.3860202269E-03    0    0
  -24    2    6    6    0    0    0.2243562317E+02   -0.4565927029E+01    0.8888739944E+00    0.2295228767E+02    0.1346303463E+01    0    0
 -321    1   11   11    0    0    0.8440391541E+01   -0.1564916134E+01    0.2211912125E+00    0.8601266861E+01    0.4936669171E+00    0    0
 -211    1   11   11    0    0    0.2425454617E+01   -0.6774639487E+00    0.2149467170E-01    0.2522246838E+01    0.1395677775E+00    0    0
  321    1   11   11    0    0    0.1156977940E+02   -0.2323547125E+01    0.6461881995E+00    0.1182877541E+02    0.4936669469E+00    0    0
  -16    1    9    9    0    0    0.6673880219E+00    0.1411534250E+00   -0.6229150668E-01    0.6849899292E+00    0.2283726499E-03    0    0
   24    2    9    9    0    0    0.3154246902E+02    0.8360613823E+01   -0.1060457897E+02    0.3433921814E+02    0.1377529025E+01    0    0
  310    1   16   16    0    0    0.8047762871E+01    0.2246949673E+01   -0.2707829714E+01    0.8797461510E+01    0.4977200031E+00    0    0
  211    1   16   16    0    0    0.7335135460E+01    0.1949388027E+01   -0.2242989063E+01    0.7915478706E+01    0.1395679861E+00    0    0
  130    1   16   16    0    0    0.1615957260E+02    0.4164276123E+01   -0.5653760910E+01    0.1762627983E+02    0.4977199733E+00    0    0
</event>
<event>
   19 9999    1    0.9119999695E+02    0.7565275169E-02    0.1185000000E+00
   11   -1    0    0    0    0    0.0000000000E+00    0.0000000000E+00    0.8000000000E+02    0.8000000000E+02    0.5109988851E-03    0    0
  -11   -1    0    0    0    0    0.0000000000E+00    0.0000000000E+00   -0.8000000000E+02    0.8000000000E+02    0.5109988851E-03    0    0
  -24    2    1    2    0    0    0.4984384537E+01   -0.1100649834E+02    0.1154503155E+02    0.7926155853E+02    0.7747980499E+02    0    0
   24    2    1    2    0    0   -0.4984384537E+01    0.1100649834E+02   -0.1154503155E+02    0.8073844147E+02    0.7899000549E+02    0    0
   15    2    3    3    0    0   -0.1376146317E+01    0.1635168839E+02    0.3752890778E+02    0.4099814606E+02    0.1777029991E+01    0    0
  -16    1    3    3    0    0    0.6360530853E+01   -0.2735818672E+02   -0.2598387527E+02    0.3826340866E+02    0.0000000000E+00    0    0
   16    1    4    4    0    0    0.1646426582E+02    0.2793725014E+02   -0.3276237106E+02    0.4609701920E+02    0.0000000000E+00    0    0
  -15    2    4    4    0    0   -0.2144865036E+02   -0.1693075180E+02    0.2121734047E+02    0.3464142609E+02    0.1777029991E+01    0    0
   16    1    5    5    0    0   -0.4850763679E+00    0.4289820671E+01    0.9074045181E+01    0.1004868984E+02    0.6959078601E-03    0    0
*****    2    5    5    0    0   -0.8911240101E+00    0.1206251049E+02    0.2845633507E+02    0.3095106888E+02    0.1381089926E+01    0    0
 -211    1   10   10    0    0    0.1248049513E+00    0.4645405769E+01    0.1094838333E+02    0.1189461899E+02    0.1395684332E+00    0    0
 -211    1   10   10    0    0   -0.3121958077E+00    0.4264140129E+01    0.1052607059E+02    0.1136213017E+02    0.1395680457E+00    0    0
  211    1   10   10    0    0   -0.7037332058E+00    0.3152963877E+01    0.6981880665E+01    0.7694320202E+01    0.1395680755E+00    0    0
  -16    1    8    8    0    0   -0.9388181686E+01   -0.7835365772E+01    0.8840653419E+01    0.1508933640E+02    0.3452669771E-03    0    0
   24    2    8    8    0    0   -0.1206131363E+02   -0.9096053123E+01    0.1237752247E+02    0.1955345345E+02    0.9596920013E+00    0    0
  111    1   15   15    0    0   -0.1206877947E+01   -0.9478411674E+00    0.1273803115E+01    0.1998936415E+01    0.1349639744E+00    0    0
  111    1   15   15    0    0   -0.1135380626E+01   -0.7834997773E+00    0.1094969511E+01    0.1766390204E+01    0.1349636465E+00    0    0
  111    1   15   15    0    0   -0.4909083366E+01   -0.3368305683E+01    0.4903481007E+01    0.7714073181E+01    0.1349641979E+00    0    0
  211    1   15   15    0    0   -0.4809973240E+01   -0.3996407986E+01    0.5105270863E+01    0.8074056625E+01    0.1395680159E+00    0    0
</event>
<event>
   18 9999    1    0.9119999695E+02    0.7565275169E-02    0.1185000000E+00
   11   -1    0    0    0    0    0.0000000000E+00    0.0000000000E+00    0.8000000000E+02    0.8000000000E+02    0.5109988851E-03    0    0
  -11   -1    0    0    0    0    0.0000000000E+00    0.0000000000E+00   -0.8000000000E+02    0.8000000000E+02    0.5109988851E-03    0    0
  -24    2    1    2    0    0   -0.3328109026E+01    0.9262329102E+01    0.1590479660E+02    0.7528805542E+02    0.7292778778E+02    0    0
   24    2    1    2    0    0    0.3328101635E+01   -0.9262234688E+01   -0.1521039677E+02    0.8401753998E+02    0.8204100037E+02    0    0
   22    1    1    2    0    0    0.7395224657E-05   -0.9391811182E-04   -0.6943995953E+00    0.6943995953E+00    0.0000000000E+00    0    0
   15    2    3    3    0    0   -0.2245399857E+02    0.2264807463E+01    0.3862881851E+02    0.4477337265E+02    0.1777029991E+01    0    0
  -16    1    3    3    0    0    0.1912588882E+02    0.6997521400E+01   -0.2272402191E+02    0.3051468658E+02    0.0000000000E+00    0    0
   16    1    4    4    0    0    0.2631573296E+02   -0.2370435524E+02    0.1909221458E+02    0.4023588943E+02    0.0000000000E+00    0    0
  -15    2    4    4    0    0   -0.2298763084E+02    0.1444211960E+02   -0.3430261230E+02    0.4378165054E+02    0.1777029991E+01    0    0
   16    1    6    6    0    0   -0.4524370670E+01    0.4434530139E+00    0.6585793495E+01    0.8002452850E+01    0.0000000000E+00    0    0
 -213    2    6    6    0    0   -0.1793051147E+02    0.1821443558E+01    0.3204454422E+02    0.3677267838E+02    0.7458509207E+00    0    0
 -211    1   11   11    0    0   -0.1283275604E+02    0.1098811746E+01    0.2335679626E+02    0.2667295265E+02    0.1395679563E+00    0    0
  111    1   11   11    0    0   -0.5097754002E+01    0.7226316333E+00    0.8687745094E+01    0.1009972477E+02    0.1349641532E+00    0    0
  -16    1    9    9    0    0   -0.9267631531E+01    0.5130806446E+01   -0.1329934978E+02    0.1700255585E+02    0.4454047012E-03    0    0
20213    2    9    9    0    0   -0.1372090340E+02    0.9311882019E+01   -0.2100461006E+02    0.2678081894E+02    0.1021873593E+01    0    0
  111    1   15   15    0    0   -0.1071256876E+01    0.8315687776E+00   -0.1899440885E+01    0.2337774277E+01    0.1349641681E+00    0    0
  111    1   15   15    0    0   -0.6273594856E+01    0.3805211782E+01   -0.9130455971E+01    0.1171413994E+02    0.1349640936E+00    0    0
  211    1   15   15    0    0   -0.6376052380E+01    0.4675101280E+01   -0.9974714279E+01    0.1272890472E+02    0.1395677924E+00    0    0
</event>
<event>
   18 9999    1    0.9119999695E+02    0.7565275169E-02    0.1185000000E+00
   11   -1    0    0    0    0    0.0000000000E+00    0.0000000000E+00    0.8000000000E+02    0.8000000000E+02    0.5109988851E-03    0    0
  -11   -1    0    0    0    0    0.0000000000E+00    0.0000000000E+00   -0.8000000000E+02    0.8000000000E+02    0.5109988851E-03    0    0
  -24    2    1    2    0    0   -0.1876654267E+01   -0.2962053776E+01   -0.1982961655E+01    0.7968835449E+02    0.7958647156E+02    0    0
   24    2    1    2    0    0    0.1876654267E+01    0.2962053776E+01    0.1982961655E+01    0.8031164551E+02    0.8021054840E+02    0    0
   15    2    3    3    0    0   -0.2902525139E+02   -0.2969438553E+02   -0.1254416823E+01    0.4158068085E+02    0.1777029991E+01    0    0
  -16    1    3    3    0    0    0.2714859581E+02    0.2673233223E+02   -0.7285448313E+00    0.3810767365E+02    0.0000000000E+00    0    0
   16    1    4    4    0    0   -0.1913839531E+02   -0.2970852470E+02    0.1624223137E+02    0.3889324951E+02    0.0000000000E+00    0    0
  -15    2    4    4    0    0    0.2101504898E+02    0.3267057800E+02   -0.1425926971E+02    0.4141839600E+02    0.1777029991E+01    0    0
   16    1    5    5    0    0   -0.2045762253E+02   -0.2046615982E+02   -0.5657742023E+00    0.2894301414E+02    0.8631674427E-04    0    0
 -323    2    5    5    0    0   -0.8568771362E+01   -0.9229395866E+01   -0.6886919737E+00    0.1263930511E+02    0.8198439479E+00    0    0
 -211    1   10   10    0    0   -0.1249867082E+01   -0.1402343869E+01   -0.2778618932E+00    0.1904054284E+01    0.1395680308E+00    0    0
  310    1   10   10    0    0   -0.7318902969E+01   -0.7827051163E+01   -0.4108300507E+00    0.1073524952E+02    0.4977200627E+00    0    0
  -16    1    8    8    0    0    0.5726264000E+01    0.8896928787E+01   -0.3157092333E+01    0.1104140663E+02    0.0000000000E+00    0    0
   24    2    8    8    0    0    0.1528961372E+02    0.2377493668E+02   -0.1110273933E+02    0.3037862206E+02    0.7549387813E+00    0    0
  111    1   14   14    0    0    0.7677850246E+01    0.1206727695E+02   -0.5710567474E+01    0.1540121269E+02    0.1349637955E+00    0    0
  111    1   14   14    0    0    0.1998102069E+01    0.3137459278E+01   -0.1492166042E+01    0.4010091782E+01    0.1349640191E+00    0    0
  111    1   14   14    0    0    0.2066987753E+01    0.3160818577E+01   -0.1527846575E+01    0.4076241016E+01    0.1349640340E+00    0    0
  211    1   14   14    0    0    0.3546674967E+01    0.5409384727E+01   -0.2372160673E+01    0.6891079426E+01    0.1395680159E+00    0    0
</event>
<event>
   16 9999    1    0.9119999695E+02    0.7565275169E-02    0.1185000000E+00
   11   -1    0    0    0    0    0.0000000000E+00    0.0000000000E+00    0.8000000000E+02    0.8000000000E+02    0.5109988851E-03    0    0
  -11   -1    0    0    0    0    0.0000000000E+00    0.0000000000E+00   -0.8000000000E+02    0.8000000000E+02    0.5109988851E-03    0    0
  -24    2    1    2    0    0    0.2379956055E+02   -0.2430559874E+01    0.9356164932E+00    0.7528404999E+02    0.7137567139E+02    0    0
   24    2    1    2    0    0   -0.2379956055E+02    0.2430559874E+01   -0.9356164932E+00    0.8471595001E+02    0.8126247406E+02    0    0
   15    2    3    3    0    0   -0.1327308655E+02    0.1244906521E+02    0.2320965195E+02    0.2954657173E+02    0.1777029991E+01    0    0
  -16    1    3    3    0    0    0.3707264709E+02   -0.1487962532E+02   -0.2227403641E+02    0.4573748016E+02    0.0000000000E+00    0    0
   16    1    4    4    0    0   -0.4863275051E+01    0.2856620789E+02   -0.2966578484E+02    0.4146973038E+02    0.0000000000E+00    0    0
  -15    2    4    4    0    0   -0.1893628502E+02   -0.2613564682E+02    0.2873016930E+02    0.4324621964E+02    0.1777029991E+01    0    0
   16    1    5    5    0    0   -0.4799595356E+01    0.5359305859E+01    0.9960488319E+01    0.1228696918E+02    0.3452669771E-03    0    0
   11    1    5    5    0    0   -0.7220854759E+00    0.6033422947E+00    0.1376107931E+01    0.1667064190E+01    0.5124773015E-03    0    0
  -12    1    5    5    0    0   -0.7751928806E+01    0.6486907959E+01    0.1187397003E+02    0.1559370232E+02    0.2441406250E-03    0    0
  -16    1    8    8    0    0   -0.4964739799E+01   -0.6147482395E+01    0.6898168087E+01    0.1048927593E+02    0.3453934041E-03    0    0
20213    2    8    8    0    0   -0.1397229004E+02   -0.1998919296E+02    0.2183313179E+02    0.3275864410E+02    0.1284679890E+01    0    0
  211    1   13   13    0    0   -0.2884462833E+01   -0.4924210072E+01    0.4913376808E+01    0.7531847000E+01    0.1395685524E+00    0    0
  211    1   13   13    0    0   -0.5620527744E+01   -0.7420276642E+01    0.8233546257E+01    0.1242825794E+02    0.1395677328E+00    0    0
 -211    1   13   13    0    0   -0.5467300892E+01   -0.7644709110E+01    0.8686210632E+01    0.1279854298E+02    0.1395681500E+00    0    0
</event>
<event>
   19 9999    1    0.9119999695E+02    0.7565275169E-02    0.1185000000E+00
   11   -1    0    0    0    0    0.0000000000E+00    0.0000000000E+00    0.8000000000E+02    0.8000000000E+02    0.5109988851E-03    0    0
  -11   -1    0    0    0    0    0.0000000000E+00    0.0000000000E+00   -0.8000000000E+02    0.8000000000E+02    0.5109988851E-03    0    0
  -24    2    1    2    0    0    0.1103003788E+02    0.6382606506E+01    0.1334342122E+01    0.7780172729E+02    0.7673935699E+02    0    0
   24    2    1    2    0    0   -0.1103679276E+02   -0.6378533840E+01   -0.1200220227E+01    0.8206391907E+02    0.8105892944E+02    0    0
   22    1    1    2    0    0    0.6755232811E-02   -0.4072643351E-02   -0.1341219991E+00    0.1343537569E+00    0.0000000000E+00    0    0
   15    2    3    3    0    0    0.2193569183E+02    0.2987772179E+02   -0.2182919693E+02    0.4305257797E+02    0.1777029991E+01    0    0
  -16    1    3    3    0    0   -0.1090565395E+02   -0.2349511528E+02    0.2316353798E+02    0.3474914932E+02    0.0000000000E+00    0    0
   16    1    4    4    0    0   -0.2710407257E+02   -0.1844082236E+01    0.3372908020E+02    0.4330914688E+02    0.0000000000E+00    0    0
  -15    2    4    4    0    0    0.1606727982E+02   -0.4534451485E+01   -0.3492929840E+02    0.3875477219E+02    0.1777029991E+01    0    0
   16    1    6    6    0    0    0.9582757950E+00    0.1518158436E+01   -0.1175515413E+01    0.2145910978E+01    0.1398491149E-03    0    0
  -24    2    6    6    0    0    0.2097827911E+02    0.2836074066E+02   -0.2065454102E+02    0.4090836334E+02    0.1569803834E+01    0    0
  130    1   11   11    0    0    0.1162721062E+02    0.1526798248E+02   -0.1115371418E+02    0.2220262146E+02    0.4977200627E+00    0    0
 -211    1   11   11    0    0    0.3220583200E+01    0.4863010883E+01   -0.3225011587E+01    0.6666424274E+01    0.1395681202E+00    0    0
  130    1   11   11    0    0    0.6130490780E+01    0.8229752541E+01   -0.6275819302E+01    0.1203932667E+02    0.4977200329E+00    0    0
  -16    1    9    9    0    0    0.2798812389E+01   -0.3459197283E+00   -0.5437086105E+01    0.6124942303E+01    0.4184359568E-03    0    0
20213    2    9    9    0    0    0.1326909924E+02   -0.4188710213E+01   -0.2949358749E+02    0.3263135529E+02    0.1148669600E+01    0    0
  111    1   16   16    0    0    0.3765920162E+01   -0.1547176600E+01   -0.8361148834E+01    0.9300695419E+01    0.1349644661E+00    0    0
  111    1   16   16    0    0    0.2362097979E+01   -0.9111610651E+00   -0.5624532223E+01    0.6169546127E+01    0.1349639744E+00    0    0
  211    1   16   16    0    0    0.7141080379E+01   -0.1730372310E+01   -0.1550790596E+02    0.1716111374E+02    0.1395683289E+00    0    0
</event>
<event>
   16 9999    1    0.9119999695E+02    0.7565275169E-02    0.1185000000E+00
   11   -1    0    0    0    0    0.0000000000E+00    0.0000000000E+00    0.8000000000E+02    0.8000000000E+02    0.5109988851E-03    0    0
  -11   -1    0    0    0    0    0.0000000000E+00    0.0000000000E+00   -0.8000000000E+02    0.8000000000E+02    0.5109988851E-03    0    0
  -24    2    1    2    0    0    0.2192142487E+02   -0.3901115179E+01   -0.1491975784E+01    0.8297106171E+02    0.7991372681E+02    0    0
   24    2    1    2    0    0   -0.2192142487E+02    0.3901115179E+01    0.1491811156E+01    0.7702877045E+02    0.7372542572E+02    0    0
   22    1    1    2    0    0    0.3390528747E-07   -0.9144725865E-08    0.1645678713E-03    0.1645678713E-03    0.0000000000E+00    0    0
   15    2    3    3    0    0   -0.2687780952E+02   -0.1032880783E+01   -0.1678051758E+02    0.3175259209E+02    0.1777029991E+01    0    0
  -16    1    3    3    0    0    0.4879923630E+02   -0.2868234396E+01    0.1528854179E+02    0.5121847153E+02    0.0000000000E+00    0    0
   16    1    4    4    0    0   -0.4088639450E+02    0.1896205902E+02    0.1705285645E+02    0.4818772507E+02    0.0000000000E+00    0    0
  -15    2    4    4    0    0    0.1896496964E+02   -0.1506094360E+02   -0.1556104469E+02    0.2884104729E+02    0.1777029991E+01    0    0
   16    1    6    6    0    0   -0.2135063934E+02   -0.1120611310E+01   -0.1274401474E+02    0.2489006805E+02    0.3860202269E-03    0    0
 -321    1    6    6    0    0   -0.5528228760E+01    0.8768984675E-01   -0.4037163734E+01    0.6863774776E+01    0.4936669469E+00    0    0
  -16    1    9    9    0    0    0.2027271986E+01   -0.1187695265E+01   -0.1467467308E+01    0.2770182848E+01    0.6443113089E-03    0    0
   24    2    9    9    0    0    0.1693844223E+02   -0.1387384033E+02   -0.1409418869E+02    0.2607199860E+02    0.1307155371E+01    0    0
  321    1   13   13    0    0    0.4829078674E+01   -0.4183360100E+01   -0.3951640368E+01    0.7528590202E+01    0.4936669171E+00    0    0
  211    1   13   13    0    0    0.3717946291E+01   -0.2947651386E+01   -0.3432431459E+01    0.5857716084E+01    0.1395678818E+00    0    0
 -211    1   13   13    0    0    0.8391415596E+01   -0.6742827415E+01   -0.6710115433E+01    0.1268568897E+02    0.1395680010E+00    0    0
</event>
<event>
   18 9999    1    0.9119999695E+02    0.7565275169E-02    0.1185000000E+00
   11   -1    0    0    0    0    0.0000000000E+00    0.0000000000E+00    0.8000000000E+02    0.8000000000E+02    0.5109988851E-03    0    0
  -11   -1    0    0    0    0    0.0000000000E+00    0.0000000000E+00   -0.8000000000E+02    0.8000000000E+02    0.5109988851E-03    0    0
  -24    2    1    2    0    0   -0.1752808762E+02   -0.7665974498E+00    0.5730178452E+02    0.6268326569E+02    0.1838139153E+02    0    0
   24    2    1    2    0    0    0.1751555443E+02    0.7592444420E+00   -0.5766152191E+02    0.9695450592E+02    0.7594705200E+02    0    0
   22    1    1    2    0    0    0.1253360044E-01    0.7353175897E-02    0.3605127633E+00    0.3608055115E+00    0.0000000000E+00    0    0
   22    1    1    2    0    0   -0.6172084621E-08    0.5143881765E-08   -0.1099364483E-02    0.1099364483E-02    0.0000000000E+00    0    0
   22    1    1    2    0    0   -0.5321087997E-06   -0.1784809740E-06    0.3227223060E-03    0.3227227717E-03    0.0000000000E+00    0    0
   15    2    3    3    0    0   -0.7405028820E+01   -0.6224286556E+01    0.4406050491E+02    0.4514490128E+02    0.1777029991E+01    0    0
  -16    1    3    3    0    0   -0.1012305927E+02    0.5457688808E+01    0.1324128056E+02    0.1753836441E+02    0.0000000000E+00    0    0
   16    1    4    4    0    0   -0.1160436821E+02    0.7393971443E+01    0.1379684639E+02    0.1948551178E+02    0.0000000000E+00    0    0
  -15    2    4    4    0    0    0.2911992264E+02   -0.6634727001E+01   -0.7145836639E+02    0.7746899414E+02    0.1777029991E+01    0    0
   16    1    8    8    0    0   -0.2953480482E+01   -0.2335860252E+01    0.1512703037E+02    0.1558866024E+02    0.4650802875E-03    0    0
  -24    2    8    8    0    0   -0.4451839447E+01   -0.3888670921E+01    0.2893520546E+02    0.2955801392E+02    0.1220436573E+01    0    0
 -321    1   13   13    0    0   -0.1597634196E+01   -0.1262623787E+01    0.1057590389E+02    0.1078147030E+02    0.4936670363E+00    0    0
  111    1   13   13    0    0   -0.7994503379E+00   -0.8474677205E+00    0.5632886887E+01    0.5753690243E+01    0.1349640191E+00    0    0
  130    1   13   13    0    0   -0.2054755449E+01   -0.1778580070E+01    0.1272641945E+02    0.1302285862E+02    0.4977200329E+00    0    0
  -16    1   11   11    0    0    0.8898612022E+01   -0.2139611244E+01   -0.1995519447E+02    0.2195388412E+02    0.4228639591E-03    0    0
  321    1   11   11    0    0    0.2022245979E+02   -0.4495377064E+01   -0.5150598526E+02    0.5551816559E+02    0.4936669469E+00    0    0
</event>
<event>
   26 9999    1    0.9119999695E+02    0.7565275169E-02    0.1185000000E+00
   11   -1    0    0    0    0    0.0000000000E+00    0.0000000000E+00    0.8000000000E+02    0.8000000000E+02    0.5109988851E-03    0    0
  -11   -1    0    0    0    0    0.0000000000E+00    0.0000000000E+00   -0.8000000000E+02    0.8000000000E+02    0.5109988851E-03    0    0
  -24    2    1    2    0    0    0.7885816574E+01    0.2607707024E+01    0.1760270882E+02    0.7713002014E+02    0.7463376617E+02    0    0
   24    2    1    2    0    0   -0.7885848045E+01   -0.2607709646E+01   -0.1751124573E+02    0.8277851868E+02    0.8047765350E+02    0    0
   22    1    1    2    0    0    0.6175937415E-05   -0.2073271617E-05   -0.9066502750E-01    0.9066502750E-01    0.0000000000E+00    0    0
   22    1    1    2    0    0    0.2523213152E-04    0.4806035122E-05   -0.7969827857E-03    0.7973965839E-03    0.0000000000E+00    0    0
   15    2    3    3    0    0    0.3571612549E+02   -0.1520167542E+02    0.2055220985E+02    0.4395774841E+02    0.1777029991E+01    0    0
  -16    1    3    3    0    0   -0.2783030701E+02    0.1780938339E+02   -0.2949500799E+01    0.3317227173E+02    0.0000000000E+00    0    0
   16    1    4    4    0    0   -0.1960314941E+02   -0.5527226925E+01    0.2858206367E+02    0.3509655380E+02    0.0000000000E+00    0    0
  -15    2    4    4    0    0    0.1171730042E+02    0.2919517279E+01   -0.4609330750E+02    0.4768196487E+02    0.1777029991E+01    0    0
   16    1    7    7    0    0    0.1184659958E+01   -0.3116261363E+00    0.6444459558E+00    0.1384138942E+01    0.7641306001E-04    0    0
  -24    2    7    7    0    0    0.3453287125E+02   -0.1489064789E+02    0.1990857315E+02    0.4257534027E+02    0.1434488654E+01    0    0
 -211    1   12   12    0    0    0.1648959923E+02   -0.7108964443E+01    0.9319709778E+01    0.2023167610E+02    0.1395679414E+00    0    0
 -211    1   12   12    0    0    0.5194651127E+01   -0.2359625340E+01    0.3146782160E+01    0.6517203808E+01    0.1395679861E+00    0    0
  211    1   12   12    0    0    0.1543203950E+01   -0.7306603789E+00    0.8975920081E+00    0.1934035540E+01    0.1395679861E+00    0    0
  111    1   12   12    0    0    0.5050291061E+01   -0.1924041510E+01    0.2817746639E+01    0.6096333981E+01    0.1349639744E+00    0    0
  111    1   12   12    0    0    0.3677215099E+01   -0.1660730839E+01    0.2106737614E+01    0.4553734303E+01    0.1349640042E+00    0    0
  111    1   12   12    0    0    0.2577910185E+01   -0.1106625438E+01    0.1620004416E+01    0.3242355824E+01    0.1349640042E+00    0    0
  -16    1   10   10    0    0    0.5365091562E+00    0.2931276858E+00   -0.2348826170E+01    0.2427086830E+01    0.4178791642E-04    0    0
   24    2   10   10    0    0    0.1118125343E+02    0.2626504660E+01   -0.4374629974E+02    0.4525675583E+02    0.1586294770E+01    0    0
  211    1   20   20    0    0    0.6076048017E+00   -0.5314293131E-01   -0.2635404110E+01    0.2708660603E+01    0.1395679861E+00    0    0
  211    1   20   20    0    0    0.1254050493E+01    0.3405024707E+00   -0.4383495331E+01    0.4574176788E+01    0.1395680010E+00    0    0
 -211    1   20   20    0    0    0.1865249872E+01    0.7197390795E+00   -0.7889611244E+01    0.8140185356E+01    0.1395679414E+00    0    0
  111    1   20   20    0    0    0.2878816605E+01    0.7433534861E+00   -0.1110850906E+02    0.1150031948E+02    0.1349640191E+00    0    0
  111    1   20   20    0    0    0.2039150238E+01    0.3488156497E+00   -0.7985508442E+01    0.8250234604E+01    0.1349640191E+00    0    0
  111    1   20   20    0    0    0.2536381245E+01    0.5272368193E+00   -0.9743771553E+01    0.1008317947E+02    0.1349640340E+00    0    0
</event>
<event>
   20 9999    1    0.9119999695E+02    0.7565275169E-02    0.1185000000E+00
   11   -1    0    0    0    0    0.0000000000E+00    0.0000000000E+00    0.8000000000E+02    0.8000000000E+02    0.5109988851E-03    0    0
  -11   -1    0    0    0    0    0.0000000000E+00    0.0000000000E+00   -0.8000000000E+02    0.8000000000E+02    0.5109988851E-03    0    0
  -24    2    1    2    0    0    0.9953422546E+01   -0.9445756912E+01    0.9255345345E+01    0.7713460541E+02    0.7533785248E+02    0    0
   24    2    1    2    0    0   -0.9953422546E+01    0.9445756912E+01   -0.9255345345E+01    0.8286539459E+02    0.8119556427E+02    0    0
   15    2    3    3    0    0   -0.2424555588E+02   -0.2784124756E+02   -0.9853873253E+00    0.3697446060E+02    0.1777029991E+01    0    0
  -16    1    3    3    0    0    0.3419897842E+02    0.1839549065E+02    0.1024073315E+02    0.4016014099E+02    0.0000000000E+00    0    0
   16    1    4    4    0    0   -0.3545009613E+02   -0.2104279327E+02    0.2728812933E+01    0.4131530762E+02    0.0000000000E+00    0    0
  -15    2    4    4    0    0    0.2549667358E+02    0.3048855019E+02   -0.1198415852E+02    0.4155009079E+02    0.1777029991E+01    0    0
   16    1    5    5    0    0   -0.3741936207E+01   -0.4739081860E+01   -0.4815070629E+00    0.6057460785E+01    0.4958519712E-03    0    0
  -24    2    5    5    0    0   -0.2050457382E+02   -0.2310326004E+02   -0.5039190650E+00    0.3091845512E+02    0.1224250317E+01    0    0
 -211    1   10   10    0    0   -0.9289250374E+01   -0.1040431690E+02   -0.5035969615E+00    0.1395754528E+02    0.1395681500E+00    0    0
  111    1   10   10    0    0   -0.3793479919E+01   -0.4589233398E+01    0.3047986031E+00    0.5963444710E+01    0.1349643469E+00    0    0
   22    1   10   10    0    0   -0.7421843529E+01   -0.8109710693E+01   -0.3051207662E+00    0.1099746609E+02    0.1972423488E-03    0    0
  -16    1    8    8    0    0    0.1053580379E+02    0.1252479553E+02   -0.5056667805E+01    0.1713019371E+02    0.1726334885E-03    0    0
   24    2    8    8    0    0    0.1496187305E+02    0.1796495438E+02   -0.6927962780E+01    0.2442152977E+02    0.1348055482E+01    0    0
  211    1   15   15    0    0    0.2097823620E+01    0.2269785404E+01   -0.9944849610E+00    0.3249810457E+01    0.1395680010E+00    0    0
  211    1   15   15    0    0    0.9078245163E+00    0.1315799594E+01   -0.5176244378E+00    0.1686086655E+01    0.1395678073E+00    0    0
 -211    1   15   15    0    0    0.2296419382E+01    0.2813885927E+01   -0.8366292715E+00    0.3729734898E+01    0.1395680457E+00    0    0
  111    1   15   15    0    0    0.3527918577E+01    0.4023995399E+01   -0.1744240880E+01    0.5630216599E+01    0.1349641532E+00    0    0
  111    1   15   15    0    0    0.6131888390E+01    0.7541489601E+01   -0.2834984064E+01    0.1012568378E+02    0.1349639297E+00    0    0
</event>
<event>
   21 9999    1    0.9119999695E+02    0.7565275169E-02    0.1185000000E+00
   11   -1    0    0    0    0    0.0000000000E+00    0.0000000000E+00    0.8000000000E+02    0.8000000000E+02    0.5109988851E-03    0    0
  -11   -1    0    0    0    0    0.0000000000E+00    0.0000000000E+00   -0.8000000000E+02    0.8000000000E+02    0.5109988851E-03    0    0
  -24    2    1    2    0    0    0.2045013237E+02    0.9440654755E+01    0.1146020699E+02    0.8197058868E+02    0.7797760773E+02    0    0
   24    2    1    2    0    0   -0.2045015335E+02   -0.9440670013E+01   -0.1201106739E+02    0.7747836304E+02    0.7315254974E+02    0    0
   22    1    1    2    0    0    0.2630999916E-04   -0.2731980658E-05    0.5509541035E+00    0.5509541035E+00    0.0000000000E+00    0    0
   22    1    1    2    0    0   -0.4005602023E-05    0.1783191328E-04   -0.9289076843E-04    0.9467162454E-04    0.0000000000E+00    0    0
   15    2    3    3    0    0    0.4450491333E+02   -0.1293846416E+02   -0.2095480442E+01    0.4642886734E+02    0.1777029991E+01    0    0
  -16    1    3    3    0    0   -0.2405477905E+02    0.2237911797E+02    0.1355568695E+02    0.3554172134E+02    0.0000000000E+00    0    0
   16    1    4    4    0    0   -0.1671128273E+02    0.1096949577E+01    0.2978807640E+02    0.3417308426E+02    0.0000000000E+00    0    0
  -15    2    4    4    0    0   -0.3738872051E+01   -0.1053761959E+02   -0.4179914474E+02    0.4330527496E+02    0.1777029991E+01    0    0
   16    1    7    7    0    0    0.9327768326E+01   -0.2538841009E+01   -0.6972599030E-01    0.9667359352E+01    0.5593964597E-03    0    0
  -24    2    7    7    0    0    0.3517889404E+02   -0.1040013218E+02   -0.2025836945E+01    0.3676333618E+02    0.1312072873E+01    0    0
 -211    1   12   12    0    0    0.8754002571E+01   -0.2521520376E+01   -0.3489947617E+00    0.9117669106E+01    0.1395682991E+00    0    0
 -211    1   12   12    0    0    0.3550256252E+01   -0.8738622069E+00   -0.1605381668E+00    0.3662404537E+01    0.1395679414E+00    0    0
  211    1   12   12    0    0    0.1634686852E+02   -0.4793603897E+01   -0.8345829844E+00    0.1705622482E+02    0.1395679563E+00    0    0
  111    1   12   12    0    0    0.6527762890E+01   -0.2211144924E+01   -0.6817209125E+00    0.6927034855E+01    0.1349640638E+00    0    0
  -16    1   10   10    0    0   -0.1104741454E+01   -0.3872965097E+01   -0.1450782108E+02    0.1505646706E+02    0.3343033313E-03    0    0
   24    2   10   10    0    0   -0.2634277582E+01   -0.6665068626E+01   -0.2729296684E+02    0.2825051308E+02    0.1350118279E+01    0    0
  111    1   18   18    0    0   -0.6815641522E+00   -0.2304712772E+01   -0.7684162140E+01    0.8052378654E+01    0.1349638253E+00    0    0
  111    1   18   18    0    0   -0.6200639606E+00   -0.9013526440E+00   -0.4684856415E+01    0.4812796593E+01    0.1349640340E+00    0    0
  321    1   18   18    0    0   -0.1332649469E+01   -0.3459002972E+01   -0.1492394733E+02    0.1538533592E+02    0.4936670363E+00    0    0
</event>
<event>
   16 9999    1    0.9119999695E+02    0.7565275169E-02    0.1185000000E+00
   11   -1    0    0    0    0    0.0000000000E+00    0.0000000000E+00    0.8000000000E+02    0.8000000000E+02    0.5109988851E-03    0    0
  -11   -1    0    0    0    0    0.0000000000E+00    0.0000000000E+00   -0.8000000000E+02    0.8000000000E+02    0.5109988851E-03    0    0
  -24    2    1    2    0    0   -0.1028543091E+02   -0.1441532731E+01   -0.5251298428E+01    0.8082414246E+02    0.7998185730E+02    0    0
   24    2    1    2    0    0    0.1027278137E+02    0.1363480091E+01    0.5116069317E+01    0.7901905823E+02    0.7816935730E+02    0    0
   22    1    1    2    0    0    0.1264950912E-01    0.7805247605E-01    0.1341610998E+00    0.1557286084E+00    0.0000000000E+00    0    0
   22    1    1    2    0    0    0.6219892867E-07    0.1629326221E-06    0.1067982870E-02    0.1067982870E-02    0.0000000000E+00    0    0
   15    2    3    3    0    0   -0.3259345245E+02    0.2445773506E+02   -0.1767658043E+02    0.4445372009E+02    0.1777029991E+01    0    0
  -16    1    3    3    0    0    0.2230802155E+02   -0.2589926720E+02    0.1242528248E+02    0.3637042236E+02    0.0000000000E+00    0    0
   16    1    4    4    0    0    0.3722057819E+01   -0.3038408756E+00    0.4165278244E+02    0.4181985474E+02    0.0000000000E+00    0    0
  -15    2    4    4    0    0    0.6550723553E+01    0.1667320967E+01   -0.3653671265E+02    0.3719920731E+02    0.1777029991E+01    0    0
   16    1    7    7    0    0   -0.2544710875E+01    0.2448528767E+01   -0.1496369839E+01    0.3835357666E+01    0.2427058935E-03    0    0
   11    1    7    7    0    0   -0.2812795258E+02    0.2044141769E+02   -0.1528322506E+02    0.3798170853E+02    0.5493164062E-03    0    0
  -12    1    7    7    0    0   -0.1922073483E+01    0.1568750381E+01   -0.8976823688E+00    0.2638404369E+01    0.0000000000E+00    0    0
  -16    1   10   10    0    0    0.2413388729E+01    0.7937678136E-02   -0.1128003693E+02    0.1153532600E+02    0.2329153067E-03    0    0
  -11    1   10   10    0    0    0.4068382740E+01    0.1633466840E+01   -0.2517598915E+02    0.2555484962E+02    0.5205908674E-03    0    0
   12    1   10   10    0    0    0.6920968741E-01    0.2598197572E-01   -0.8212433755E-01    0.1104964837E+00    0.1510543079E-03    0    0
</event>
<event>
   18 9999    1    0.9119999695E+02    0.7565275169E-02    0.1185000000E+00
   11   -1    0    0    0    0    0.0000000000E+00    0.0000000000E+00    0.8000000000E+02    0.8000000000E+02    0.5109988851E-03    0    0
  -11   -1    0    0    0    0    0.0000000000E+00    0.0000000000E+00   -0.8000000000E+02    0.8000000000E+02    0.5109988851E-03    0    0
  -24    2    1    2    0    0   -0.2843219757E+02    0.1588764787E+01    0.1533296871E+02    0.8720147705E+02    0.8098199463E+02    0    0
   24    2    1    2    0    0    0.2843219757E+02   -0.1588764787E+01   -0.1533296871E+02    0.7279852295E+02    0.6521971130E+02    0    0
   15    2    3    3    0    0   -0.3327803612E+01    0.2471434212E+02    0.3853160477E+02    0.4593163681E+02    0.1777029991E+01    0    0
  -16    1    3    3    0    0   -0.2510439301E+02   -0.2312557793E+02   -0.2319863701E+02    0.4126984024E+02    0.0000000000E+00    0    0
   16    1    4    4    0    0    0.7310634136E+01    0.2950473022E+02    0.3712006092E+01    0.3062276077E+02    0.0000000000E+00    0    0
  -15    2    4    4    0    0    0.2112156296E+02   -0.3109349632E+02   -0.1904497528E+02    0.4217576218E+02    0.1777029991E+01    0    0
   16    1    5    5    0    0   -0.1480300188E+01    0.7424058437E+01    0.1252333736E+02    0.1463358879E+02    0.1726334885E-03    0    0
 -323    2    5    5    0    0   -0.1847634315E+01    0.1729125595E+02    0.2600978279E+02    0.3129985619E+02    0.8780194521E+00    0    0
  111    1   10   10    0    0   -0.9885470271E+00    0.6647545338E+01    0.1009567451E+02    0.1212880611E+02    0.1349640191E+00    0    0
 -321    1   10   10    0    0   -0.8590873480E+00    0.1064371109E+02    0.1591410923E+02    0.1917105103E+02    0.4936669767E+00    0    0
  -16    1    8    8    0    0    0.9088512063E+00   -0.1596577287E+01   -0.7534450889E+00    0.1985635757E+01    0.5560567370E-03    0    0
   24    2    8    8    0    0    0.2021354294E+02   -0.2949814034E+02   -0.1829227829E+02    0.4019178391E+02    0.1429819107E+01    0    0
  111    1   14   14    0    0    0.8832892418E+01   -0.1300957680E+02   -0.7894625187E+01    0.1759580612E+02    0.1349641085E+00    0    0
  111    1   14   14    0    0    0.5263969898E+01   -0.7791448116E+01   -0.4436181068E+01    0.1039778614E+02    0.1349644512E+00    0    0
  111    1   14   14    0    0    0.1591704607E+01   -0.2026469707E+01   -0.1428671002E+01    0.2949477673E+01    0.1349640340E+00    0    0
  211    1   14   14    0    0    0.4524974823E+01   -0.6670645237E+01   -0.4532800674E+01    0.9248711586E+01    0.1395679563E+00    0    0
</event>
<event>
   16 9999    1    0.9119999695E+02    0.7565275169E-02    0.1185000000E+00
   11   -1    0    0    0    0    0.0000000000E+00    0.0000000000E+00    0.8000000000E+02    0.8000000000E+02    0.5109988851E-03    0    0
  -11   -1    0    0    0    0    0.0000000000E+00    0.0000000000E+00   -0.8000000000E+02    0.8000000000E+02    0.5109988851E-03    0    0
  -24    2    1    2    0    0    0.3978048563E+01   -0.2262918092E-01    0.1016611862E+02    0.8032166290E+02    0.7957633972E+02    0    0
   24    2    1    2    0    0   -0.3978047848E+01    0.2262569964E-01   -0.1016266632E+02    0.7967488861E+02    0.7892390442E+02    0    0
   22    1    1    2    0    0   -0.4239136331E-06    0.4042724868E-05   -0.3452417674E-02    0.3452420002E-02    0.0000000000E+00    0    0
   15    2    3    3    0    0   -0.1287594414E+02   -0.2497738838E+02   -0.2239013100E+02    0.3597409821E+02    0.1777029991E+01    0    0
  -16    1    3    3    0    0    0.1685399246E+02    0.2495475960E+02    0.3255625153E+02    0.4434756470E+02    0.0000000000E+00    0    0
   16    1    4    4    0    0   -0.3145113182E+02   -0.1117910981E+01    0.2118621826E+02    0.3793783188E+02    0.0000000000E+00    0    0
  -15    2    4    4    0    0    0.2747308350E+02    0.1140536666E+01   -0.3134888268E+02    0.4173705292E+02    0.1777029991E+01    0    0
   16    1    6    6    0    0   -0.3794400930E+01   -0.7430886269E+01   -0.6699844360E+01    0.1070062923E+02    0.5303389626E-03    0    0
  -24    2    6    6    0    0   -0.9082050323E+01   -0.1754748535E+02   -0.1569116974E+02    0.2527488518E+02    0.1486318588E+01    0    0
  221    1   11   11    0    0   -0.3168488264E+01   -0.5529658318E+01   -0.5342116833E+01    0.8334016800E+01    0.5488001704E+00    0    0
 -211    1   11   11    0    0   -0.5114656448E+01   -0.1004872227E+02   -0.8897300720E+01    0.1436377239E+02    0.1395681500E+00    0    0
  111    1   11   11    0    0   -0.7989074588E+00   -0.1969108343E+01   -0.1451754332E+01    0.2577100515E+01    0.1349640936E+00    0    0
  -16    1    9    9    0    0    0.1968557167E+02    0.1401626110E+01   -0.2165154076E+02    0.2929634094E+02    0.2441406250E-03    0    0
  211    1    9    9    0    0    0.7788594246E+01   -0.2610445321E+00   -0.9698576927E+01    0.1244235611E+02    0.1395679563E+00    0    0
</event>
<event>
   21 9999    1    0.9119999695E+02    0.7565275169E-02    0.1185000000E+00
   11   -1    0    0    0    0    0.0000000000E+00    0.0000000000E+00    0.8000000000E+02    0.8000000000E+02    0.5109988851E-03    0    0
  -11   -1    0    0    0    0    0.0000000000E+00    0.0000000000E+00   -0.8000000000E+02    0.8000000000E+02    0.5109988851E-03    0    0
  -24    2    1    2    0    0    0.1033864594E+02   -0.5832429409E+01    0.1059004784E+01    0.7871491241E+02    0.7780752563E+02    0    0
   24    2    1    2    0    0   -0.1033882713E+02    0.5832532883E+01   -0.1060403109E+01    0.8128343201E+02    0.8040499115E+02    0    0
   22    1    1    2    0    0    0.1862809149E-03   -0.1032565633E-03    0.1189063652E-02    0.1207988011E-02    0.0000000000E+00    0    0
   22    1    1    2    0    0   -0.2358680604E-05   -0.2239732311E-06    0.3235999029E-03    0.3236085759E-03    0.0000000000E+00    0    0
   22    1    1    2    0    0   -0.5714778428E-08   -0.1054573495E-07   -0.1169511161E-03    0.1169511161E-03    0.0000000000E+00    0    0
   15    2    3    3    0    0   -0.2880835342E+02    0.1313847828E+02    0.1191844749E+02    0.3387842941E+02    0.1777029991E+01    0    0
  -16    1    3    3    0    0    0.3914699936E+02   -0.1897090721E+02   -0.1085944271E+02    0.4483648300E+02    0.0000000000E+00    0    0
   16    1    4    4    0    0   -0.2536784935E+02   -0.1057165432E+02    0.3150283813E+02    0.4180569839E+02    0.0000000000E+00    0    0
  -15    2    4    4    0    0    0.1502902126E+02    0.1640418816E+02   -0.3256324387E+02    0.3947773361E+02    0.1777029991E+01    0    0
   16    1    8    8    0    0   -0.6661577225E+01    0.2745670557E+01    0.2769213915E+01    0.7719058514E+01    0.6015137769E-03    0    0
  -24    2    8    8    0    0   -0.2214790726E+02    0.1039332390E+02    0.9149702072E+01    0.2616070366E+02    0.1454075933E+01    0    0
 -321    1   13   13    0    0   -0.7305439949E+01    0.3456499338E+01    0.3008842707E+01    0.8637921333E+01    0.4936671555E+00    0    0
  111    1   13   13    0    0   -0.5098499775E+01    0.2024093866E+01    0.2121057272E+01    0.5882920742E+01    0.1349641681E+00    0    0
  310    1   13   13    0    0   -0.9743968010E+01    0.4912730217E+01    0.4019802094E+01    0.1163986111E+02    0.4977200031E+00    0    0
  -16    1   11   11    0    0    0.1982423902E+01    0.2336827755E+01   -0.4883948326E+01    0.5765736580E+01    0.6224389072E-03    0    0
   24    2   11   11    0    0    0.1304718781E+02    0.1406800461E+02   -0.2768057442E+02    0.3371354675E+02    0.1500433803E+01    0    0
  221    1   18   18    0    0    0.7960237980E+01    0.8780088425E+01   -0.1697928047E+02    0.2071358299E+02    0.5487999320E+00    0    0
  211    1   18   18    0    0    0.6555287242E+00    0.6269505024E+00   -0.1762683988E+01    0.1987289310E+01    0.1395678669E+00    0    0
  111    1   18   18    0    0    0.4431420326E+01    0.4660964012E+01   -0.8938606262E+01    0.1101267338E+02    0.1349640042E+00    0    0
</event>
<event>
   20 9999    1    0.9119999695E+02    0.7565275169E-02    0.1185000000E+00
   11   -1    0    0    0    0    0.0000000000E+00    0.0000000000E+00    0.8000000000E+02    0.8000000000E+02    0.5109988851E-03    0    0
  -11   -1    0    0    0    0    0.0000000000E+00    0.0000000000E+00   -0.8000000000E+02    0.8000000000E+02    0.5109988851E-03    0    0
  -24    2    1    2    0    0   -0.1032143402E+02   -0.2069238472E+02   -0.2345476389E+01    0.7684828949E+02    0.7324924469E+02    0    0
   24    2    1    2    0    0    0.1032143307E+02    0.2069238472E+02    0.2343823671E+01    0.8315006256E+02    0.7983565521E+02    0    0
   22    1    1    2    0    0    0.1263963725E-06    0.1838297692E-06    0.1652799547E-02    0.1652799547E-02    0.0000000000E+00    0    0
   15    2    3    3    0    0    0.1918522072E+02   -0.1866826057E+02    0.2492439842E+02    0.3661912155E+02    0.1777029991E+01    0    0
  -16    1    3    3    0    0   -0.2950665283E+02   -0.2024122715E+01   -0.2726987457E+02    0.4022916412E+02    0.0000000000E+00    0    0
   16    1    4    4    0    0    0.7003751755E+01   -0.1740280151E+02    0.3037699318E+02    0.3570254517E+02    0.0000000000E+00    0    0
  -15    2    4    4    0    0    0.3317681789E+01    0.3809518433E+02   -0.2803316879E+02    0.4744751358E+02    0.1777029991E+01    0    0
   16    1    6    6    0    0    0.2811118364E+01   -0.2981982231E+01    0.4312306881E+01    0.5948999405E+01    0.1220703125E-03    0    0
  -24    2    6    6    0    0    0.1637485695E+02   -0.1568701363E+02    0.2061307144E+02    0.3067156410E+02    0.1275832176E+01    0    0
 -211    1   11   11    0    0    0.1845307469E+01   -0.1672650933E+01    0.2313000917E+01    0.3401819229E+01    0.1395679861E+00    0    0
 -211    1   11   11    0    0    0.1202933669E+01   -0.9810006022E+00    0.1176822901E+01    0.1952896118E+01    0.1395679861E+00    0    0
 -211    1   11   11    0    0    0.4494631290E+01   -0.4497315884E+01    0.5954030991E+01    0.8711918831E+01    0.1395679712E+00    0    0
  211    1   11   11    0    0    0.2568554878E+01   -0.2511876822E+01    0.3213535070E+01    0.4822165966E+01    0.1395680010E+00    0    0
  211    1   11   11    0    0    0.6263429165E+01   -0.6024169445E+01    0.7955682278E+01    0.1178276348E+02    0.1395680010E+00    0    0
  -16    1    9    9    0    0    0.1430747151E+01    0.9487352371E+01   -0.6779457092E+01    0.1174810314E+02    0.1364787604E-03    0    0
  323    2    9    9    0    0    0.1887065291E+01    0.2860933304E+02   -0.2125481606E+02    0.3570127869E+02    0.8712979555E+00    0    0
  211    1   18   18    0    0    0.7820212245E+00    0.8127818108E+01   -0.6175704956E+01    0.1023873997E+02    0.1395679861E+00    0    0
  130    1   18   18    0    0    0.1105044246E+01    0.2048151588E+02   -0.1507911205E+02    0.2546254158E+02    0.4977201223E+00    0    0
</event>
<event>
   16 9999    1    0.9119999695E+02    0.7565275169E-02    0.1185000000E+00
   11   -1    0    0    0    0    0.0000000000E+00    0.0000000000E+00    0.8000000000E+02    0.8000000000E+02    0.5109988851E-03    0    0
  -11   -1    0    0    0    0    0.0000000000E+00    0.0000000000E+00   -0.8000000000E+02    0.8000000000E+02    0.5109988851E-03    0    0
  -24    2    1    2    0    0    0.1095500851E+02   -0.2023176765E+02    0.2369799376E+01    0.8250672150E+02    0.7919852448E+02    0    0
   24    2    1    2    0    0   -0.1095500851E+02    0.2023176765E+02   -0.2369799376E+01    0.7749327850E+02    0.7396118164E+02    0    0
   15    2    3    3    0    0   -0.1481342125E+02   -0.7041572928E+00    0.3408664703E+02    0.3721546173E+02    0.1777029991E+01    0    0
  -16    1    3    3    0    0    0.2576843071E+02   -0.1952761078E+02   -0.3171684647E+02    0.4529125595E+02    0.0000000000E+00    0    0
   16    1    4    4    0    0    0.2945715523E+02    0.1585183048E+02    0.1009080124E+02    0.3494036102E+02    0.0000000000E+00    0    0
  -15    2    4    4    0    0   -0.4041216278E+02    0.4379938126E+01   -0.1246060085E+02    0.4255292130E+02    0.1777029991E+01    0    0
   16    1    5    5    0    0   -0.5569988251E+01   -0.2630092204E+00    0.1260287189E+02    0.1378137589E+02    0.3908156941E-03    0    0
  -24    2    5    5    0    0   -0.9244016647E+01   -0.4411758184E+00    0.2148511505E+02    0.2343555069E+02    0.1402976036E+01    0    0
 -321    1   10   10    0    0   -0.2401595354E+01    0.1134280562E+00    0.5567080975E+01    0.6084128857E+01    0.4936670959E+00    0    0
 -211    1   10   10    0    0   -0.3076190054E+00    0.1760465838E-01    0.6350293159E+00    0.7195004225E+00    0.1395680606E+00    0    0
  211    1   10   10    0    0   -0.6534801483E+01   -0.5722084641E+00    0.1528300476E+02    0.1663191986E+02    0.1395677477E+00    0    0
  -16    1    8    8    0    0   -0.2461209297E+02    0.2467949152E+01   -0.7269401073E+01    0.2578158379E+02    0.8631674427E-04    0    0
  -13    1    8    8    0    0   -0.1441119576E+02    0.1451395988E+01   -0.4716188908E+01    0.1523294830E+02    0.1056589931E+00    0    0
   14    1    8    8    0    0   -0.1390467405E+01    0.4607654810E+00   -0.4755015969E+00    0.1540067077E+01    0.2200653835E-03    0    0
</event>
<event>
   21 9999    1    0.9119999695E+02    0.7565275169E-02    0.1185000000E+00
   11   -1    0    0    0    0    0.0000000000E+00    0.0000000000E+00    0.8000000000E+02    0.8000000000E+02    0.5109988851E-03    0    0
  -11   -1    0    0    0    0    0.0000000000E+00    0.0000000000E+00   -0.8000000000E+02    0.8000000000E+02    0.5109988851E-03    0    0
  -24    2    1    2    0    0    0.4235034466E+01   -0.9893442392E+00   -0.1613028884E+01    0.8007170105E+02    0.7993723297E+02    0    0
   24    2    1    2    0    0   -0.4235816479E+01    0.9885016084E+00    0.1784365654E+01    0.7975662231E+02    0.7961793518E+02    0    0
   22    1    1    2    0    0   -0.1069573614E-05   -0.1179690344E-05   -0.1695439219E+00    0.1695439219E+00    0.0000000000E+00    0    0
   22    1    1    2    0    0    0.7832205156E-03    0.8438444347E-03   -0.1792859868E-02    0.2130693290E-02    0.0000000000E+00    0    0
   15    2    3    3    0    0   -0.2913778305E+02    0.1458197403E+02    0.1910942459E+02    0.3781497574E+02    0.1777029991E+01    0    0
  -16    1    3    3    0    0    0.3337281799E+02   -0.1557131863E+02   -0.2072245407E+02    0.4225672531E+02    0.0000000000E+00    0    0
   16    1    4    4    0    0   -0.1257015610E+02    0.6910072803E+01    0.3877227020E+02    0.4134062195E+02    0.0000000000E+00    0    0
  -15    2    4    4    0    0    0.8334340096E+01   -0.5921571255E+01   -0.3698790741E+02    0.3841600418E+02    0.1777029991E+01    0    0
   16    1    7    7    0    0   -0.7979582787E+01    0.3849600077E+01    0.5313613415E+01    0.1033090782E+02    0.2047181333E-03    0    0
  -24    2    7    7    0    0   -0.2115934753E+02    0.1073294830E+02    0.1379656315E+02    0.2748555565E+02    0.1482047796E+01    0    0
 -321    1   12   12    0    0   -0.4228975296E+01    0.2307597160E+01    0.2923218012E+01    0.5656690598E+01    0.4936670959E+00    0    0
  111    1   12   12    0    0   -0.1680621505E+01    0.9280900359E+00    0.9880826473E+00    0.2163414478E+01    0.1349641979E+00    0    0
  310    1   12   12    0    0   -0.1524975014E+02    0.7497260571E+01    0.9885262489E+01    0.1966544914E+02    0.4977200031E+00    0    0
  -16    1   10   10    0    0    0.2923461676E+01   -0.2598268032E+01   -0.1478834248E+02    0.1529681969E+02    0.1930101134E-03    0    0
   24    2   10   10    0    0    0.5411206245E+01   -0.3323536396E+01   -0.2220101929E+02    0.2312069511E+02    0.1163709044E+01    0    0
  211    1   17   17    0    0    0.6310545802E+00   -0.3324583471E+00   -0.1729795814E+01    0.1876281261E+01    0.1395682544E+00    0    0
  211    1   17   17    0    0    0.1798353434E+01   -0.1001770139E+01   -0.6950093269E+01    0.7249889374E+01    0.1395681649E+00    0    0
 -211    1   17   17    0    0    0.2596297741E+01   -0.1707421660E+01   -0.1182655716E+02    0.1222877693E+02    0.1395679712E+00    0    0
  111    1   17   17    0    0    0.3854998946E+00   -0.2818859220E+00   -0.1694571733E+01    0.1765745878E+01    0.1349640042E+00    0    0
</event>
<event>
   20 9999    1    0.9119999695E+02    0.7565275169E-02    0.1185000000E+00
   11   -1    0    0    0    0    0.0000000000E+00    0.0000000000E+00    0.8000000000E+02    0.8000000000E+02    0.5109988851E-03    0    0
  -11   -1    0    0    0    0    0.0000000000E+00    0.0000000000E+00   -0.8000000000E+02    0.8000000000E+02    0.5109988851E-03    0    0
  -24    2    1    2    0    0    0.4233011723E+01   -0.9956648827E+01    0.3425744772E+01    0.8061016846E+02    0.7980733490E+02    0    0
   24    2    1    2    0    0   -0.4233012199E+01    0.9956647873E+01   -0.3426990986E+01    0.7938858795E+02    0.7857321167E+02    0    0
   22    1    1    2    0    0    0.3146350878E-06    0.4989234981E-06    0.1246201340E-02    0.1246201457E-02    0.0000000000E+00    0    0
   15    2    3    3    0    0    0.3832375050E+01    0.3478527069E+02   -0.3949425936E+01    0.3526269913E+02    0.1777029991E+01    0    0
  -16    1    3    3    0    0    0.4006369710E+00   -0.4474192047E+02    0.7375170708E+01    0.4534746933E+02    0.0000000000E+00    0    0
   16    1    4    4    0    0    0.3304275894E+02    0.1156227303E+02    0.1457996559E+02    0.3792209625E+02    0.0000000000E+00    0    0
  -15    2    4    4    0    0   -0.3727577209E+02   -0.1605625033E+01   -0.1800695610E+02    0.4146648788E+02    0.1777029991E+01    0    0
   16    1    6    6    0    0    0.1610609889E+01    0.1479332829E+02   -0.1917759538E+01    0.1500381374E+02    0.6488126237E-03    0    0
  -24    2    6    6    0    0    0.2221915722E+01    0.1999331093E+02   -0.2031821728E+01    0.2026027298E+02    0.1296518207E+01    0    0
 -211    1   11   11    0    0    0.2869661152E+00    0.6044890881E+01   -0.4182561040E+00    0.6067740440E+01    0.1395677477E+00    0    0
  130    1   11   11    0    0    0.1215787172E+01    0.9803310394E+01   -0.1084867358E+01    0.9950261116E+01    0.4977200925E+00    0    0
  111    1   11   11    0    0    0.7191624641E+00    0.4145108700E+01   -0.5286982656E+00    0.4242270470E+01    0.1349639744E+00    0    0
  -16    1    9    9    0    0   -0.7700154781E+01    0.1429843009E+00   -0.3515244961E+01    0.8465800285E+01    0.4048614355E-03    0    0
   24    2    9    9    0    0   -0.2957708359E+02   -0.1748672485E+01   -0.1449242020E+02    0.3300231934E+02    0.1122946620E+01    0    0
  111    1   16   16    0    0   -0.4370159626E+01   -0.3076585829E+00   -0.2126271486E+01    0.4871570110E+01    0.1349638402E+00    0    0
  111    1   16   16    0    0   -0.4847557068E+01   -0.1006792560E+00   -0.2447721004E+01    0.5433092594E+01    0.1349641234E+00    0    0
  111    1   16   16    0    0   -0.9239292145E+01   -0.6338456273E+00   -0.4139657974E+01    0.1014501190E+02    0.1349640936E+00    0    0
  211    1   16   16    0    0   -0.1112007999E+02   -0.7064893842E+00   -0.5778771877E+01    0.1255264854E+02    0.1395680606E+00    0    0
</event>
<event>
   20 9999    1    0.9119999695E+02    0.7565275169E-02    0.1185000000E+00
   11   -1    0    0    0    0    0.0000000000E+00    0.0000000000E+00    0.8000000000E+02    0.8000000000E+02    0.5109988851E-03    0    0
  -11   -1    0    0    0    0    0.0000000000E+00    0.0000000000E+00   -0.8000000000E+02    0.8000000000E+02    0.5109988851E-03    0    0
  -24    2    1    2    0    0   -0.1906342888E+02    0.1760453224E+02   -0.6379933834E+01    0.7650763702E+02    0.7168947601E+02    0    0
   24    2    1    2    0    0    0.1906344032E+02   -0.1760453033E+02    0.6517899513E+01    0.8335440063E+02    0.7894389343E+02    0    0
   22    1    1    2    0    0   -0.5708123808E-05   -0.2337790420E-05   -0.1377194226E+00    0.1377194226E+00    0.0000000000E+00    0    0
   22    1    1    2    0    0   -0.6230935924E-05    0.1503036060E-05   -0.2465856378E-03    0.2466689330E-03    0.0000000000E+00    0    0
   15    2    3    3    0    0   -0.1149988556E+02    0.1057503414E+02    0.3259430695E+02    0.3618874741E+02    0.1777029991E+01    0    0
  -16    1    3    3    0    0   -0.7563543797E+01    0.7029497147E+01   -0.3897424316E+02    0.4031888580E+02    0.0000000000E+00    0    0
   16    1    4    4    0    0   -0.1764341354E+02    0.6539669991E+01    0.2853365707E+02    0.3417933655E+02    0.0000000000E+00    0    0
  -15    2    4    4    0    0    0.3670685577E+02   -0.2414420128E+02   -0.2201575661E+02    0.4917506409E+02    0.1777029991E+01    0    0
   16    1    7    7    0    0   -0.1396602750E+01    0.1442846894E+01    0.4922537804E+01    0.5316359997E+01    0.2589502255E-03    0    0
  -24    2    7    7    0    0   -0.1010373497E+02    0.9132603645E+01    0.2767305374E+02    0.3087381363E+02    0.1380031347E+01    0    0
  111    1   12   12    0    0   -0.4783345222E+01    0.3925583124E+01    0.1240119267E+02    0.1385995674E+02    0.1349639595E+00    0    0
  111    1   12   12    0    0   -0.9188677669E+00    0.1111408591E+01    0.3453349829E+01    0.3744781256E+01    0.1349636018E+00    0    0
 -321    1   12   12    0    0   -0.4401523113E+01    0.4095612526E+01    0.1181851387E+02    0.1326907825E+02    0.4936670065E+00    0    0
  -16    1   10   10    0    0    0.3345182419E+01   -0.2332595110E+01   -0.1714739919E+01    0.4423977852E+01    0.4315837286E-03    0    0
   24    2   10   10    0    0    0.3336311722E+02   -0.2181255531E+02   -0.2030188370E+02    0.4475302124E+02    0.1334685564E+01    0    0
  211    1   17   17    0    0    0.1576707840E+02   -0.9936443329E+01   -0.9744287491E+01    0.2103103256E+02    0.1395679861E+00    0    0
  310    1   17   17    0    0    0.1608927345E+02   -0.1093165588E+02   -0.9754009247E+01    0.2176589584E+02    0.4977201223E+00    0    0
  111    1   17   17    0    0    0.1506763816E+01   -0.9444537759E+00   -0.8035852909E+00    0.1956091642E+01    0.1349639595E+00    0    0
</event>
<event>
   17 9999    1    0.9119999695E+02    0.7565275169E-02    0.1185000000E+00
   11   -1    0    0    0    0    0.0000000000E+00    0.0000000000E+00    0.8000000000E+02    0.8000000000E+02    0.5109988851E-03    0    0
  -11   -1    0    0    0    0    0.0000000000E+00    0.0000000000E+00   -0.8000000000E+02    0.8000000000E+02    0.5109988851E-03    0    0
  -24    2    1    2    0    0   -0.1658580017E+02   -0.7383708954E+01    0.1787122726E+02    0.8404952240E+02    0.8009577942E+02    0    0
   24    2    1    2    0    0    0.1658584595E+02    0.7383725643E+01   -0.1742295074E+02    0.7550219727E+02    0.7118576813E+02    0    0
   22    1    1    2    0    0   -0.4614393038E-04   -0.1686880569E-04   -0.4482756555E+00    0.4482756555E+00    0.0000000000E+00    0    0
   15    2    3    3    0    0   -0.5354331493E+01    0.9623315811E+01    0.4710761261E+02    0.4841035080E+02    0.1777029991E+01    0    0
  -16    1    3    3    0    0   -0.1123146820E+02   -0.1700702477E+02   -0.2923638344E+02    0.3563917542E+02    0.0000000000E+00    0    0
   16    1    4    4    0    0    0.7875572681E+01    0.3579721069E+02    0.6605317593E+01    0.3724372864E+02    0.0000000000E+00    0    0
  -15    2    4    4    0    0    0.8710273743E+01   -0.2841348648E+02   -0.2402826881E+02    0.3825847244E+02    0.1777029991E+01    0    0
   16    1    6    6    0    0   -0.2017307043E+01    0.5281862259E+01    0.2345204735E+02    0.2412397003E+02    0.2441406250E-03    0    0
 -321    1    6    6    0    0   -0.3269507885E+01    0.4246423721E+01    0.2320943832E+02    0.2382527351E+02    0.4936670959E+00    0    0
   22    1    6    6    0    0   -0.6751663238E-01    0.9502979368E-01    0.4461283088E+00    0.4611069560E+00    0.0000000000E+00    0    0
  -16    1    9    9    0    0    0.3040906429E+01   -0.1111218357E+02   -0.8962212563E+01    0.1459619808E+02    0.3558930475E-03    0    0
20213    2    9    9    0    0    0.5669710159E+01   -0.1730242157E+02   -0.1506700325E+02    0.2366378021E+02    0.1200211167E+01    0    0
  211    1   14   14    0    0    0.1415450722E+00   -0.4104704559E+00   -0.3343622983E+00    0.5655071735E+00    0.1395679116E+00    0    0
  211    1   14   14    0    0    0.2150928736E+01   -0.6515378475E+01   -0.6136227608E+01    0.9205945015E+01    0.1395683885E+00    0    0
 -211    1   14   14    0    0    0.3377236128E+01   -0.1037657261E+02   -0.8596412659E+01    0.1389232731E+02    0.1395680457E+00    0    0
</event>
<event>
   16 9999    1    0.9119999695E+02    0.7565275169E-02    0.1185000000E+00
   11   -1    0    0    0    0    0.0000000000E+00    0.0000000000E+00    0.8000000000E+02    0.8000000000E+02    0.5109988851E-03    0    0
  -11   -1    0    0    0    0    0.0000000000E+00    0.0000000000E+00   -0.8000000000E+02    0.8000000000E+02    0.5109988851E-03    0    0
  -24    2    1    2    0    0   -0.5551669598E+00    0.2388412285E+02    0.9032699585E+01    0.7502082062E+02    0.7053916931E+02    0    0
   24    2    1    2    0    0    0.5537366271E+00   -0.2388327980E+02   -0.9030521393E+01    0.8497644043E+02    0.8104768372E+02    0    0
   22    1    1    2    0    0    0.1430317992E-02   -0.8441206301E-03   -0.2178760245E-02    0.2739588497E-02    0.0000000000E+00    0    0
   15    2    3    3    0    0   -0.2555030632E+02   -0.1357662773E+02    0.7583446980E+01    0.2996346855E+02    0.1777029991E+01    0    0
  -16    1    3    3    0    0    0.2499513817E+02    0.3746075058E+02    0.1449252844E+01    0.4505735397E+02    0.0000000000E+00    0    0
   16    1    4    4    0    0    0.3256642151E+02   -0.2678338623E+02   -0.2502169418E+02    0.4903067398E+02    0.0000000000E+00    0    0
  -15    2    4    4    0    0   -0.3201268387E+02    0.2900107384E+01    0.1599117374E+02    0.3594576645E+02    0.1777029991E+01    0    0
   16    1    6    6    0    0   -0.1729732895E+02   -0.8590942383E+01    0.5121833801E+01    0.1998086739E+02    0.1977765060E-03    0    0
   11    1    6    6    0    0   -0.5814157009E+01   -0.3201466560E+01    0.1949905992E+01    0.6917798996E+01    0.5142913433E-03    0    0
  -12    1    6    6    0    0   -0.2439823627E+01   -0.1784753084E+01    0.5120052099E+00    0.3065979719E+01    0.4048614355E-03    0    0
  -16    1    9    9    0    0   -0.2232918739E+01    0.1266302541E-02    0.1450309634E+01    0.2662578821E+01    0.1726334885E-03    0    0
   24    2    9    9    0    0   -0.2978102493E+02    0.2898955107E+01    0.1454149342E+02    0.3328460312E+02    0.1047012925E+01    0    0
  321    1   14   14    0    0   -0.1710313225E+02    0.1549564362E+01    0.8449198723E+01    0.1914552116E+02    0.4936670363E+00    0    0
  130    1   14   14    0    0   -0.1267788887E+02    0.1349390507E+01    0.6092293262E+01    0.1413907719E+02    0.4977200329E+00    0    0
</event>
<event>
   22 9999    1    0.9119999695E+02    0.7565275169E-02    0.1185000000E+00
   11   -1    0    0    0    0    0.0000000000E+00    0.0000000000E+00    0.8000000000E+02    0.8000000000E+02    0.5109988851E-03    0    0
  -11   -1    0    0    0    0    0.0000000000E+00    0.0000000000E+00   -0.8000000000E+02    0.8000000000E+02    0.5109988851E-03    0    0
  -24    2    1    2    0    0    0.8697030067E+01   -0.8275891304E+01   -0.5408079624E+01    0.7980718994E+02    0.7871347809E+02    0    0
   24    2    1    2    0    0   -0.8697030067E+01    0.8275891304E+01    0.5408079624E+01    0.8019281006E+02    0.7910443115E+02    0    0
   15    2    3    3    0    0   -0.2426320648E+02    0.1613611031E+02   -0.1239701939E+02    0.3171625900E+02    0.1777029991E+01    0    0
  -16    1    3    3    0    0    0.3616640091E+02   -0.2463869286E+02    0.8433974266E+01    0.4456686783E+02    0.0000000000E+00    0    0
   22    1    3    3    0    0   -0.3206165552E+01    0.2266911119E+00   -0.1445034504E+01    0.3524061680E+01    0.0000000000E+00    0    0
   16    1    4    4    0    0   -0.3906016541E+02    0.1879526329E+02    0.1616024971E+02    0.4626134491E+02    0.0000000000E+00    0    0
  -15    2    4    4    0    0    0.3036313438E+02   -0.1051937199E+02   -0.1075217056E+02    0.3393146133E+02    0.1777029991E+01    0    0
   16    1    5    5    0    0   -0.6543698311E+01    0.5002814293E+01   -0.3763350248E+01    0.9055989265E+01    0.1614838402E-03    0    0
*****    2    5    5    0    0   -0.1772043800E+02    0.1113391399E+02   -0.8634142876E+01    0.2266148376E+02    0.1008242011E+01    0    0
 -211    1   11   11    0    0   -0.8364912033E+01    0.5623363018E+01   -0.4295824528E+01    0.1095753288E+02    0.1395681649E+00    0    0
 -211    1   11   11    0    0   -0.4372923374E+01    0.2808413029E+01   -0.2168790102E+01    0.5633184433E+01    0.1395681202E+00    0    0
  211    1   11   11    0    0   -0.4982599258E+01    0.2702136278E+01   -0.2169526577E+01    0.6070762157E+01    0.1395681500E+00    0    0
  -16    1    9    9    0    0    0.1447290659E+01   -0.6484115720E+00   -0.4282223284E+00    0.1642699599E+01    0.4315837214E-04    0    0
   24    2    9    9    0    0    0.2891703987E+02   -0.9871375084E+01   -0.1032437134E+02    0.3229010010E+02    0.1555190682E+01    0    0
  211    1   16   16    0    0    0.3509483814E+01   -0.1187481642E+01   -0.1388597012E+01    0.3959074497E+01    0.1395680010E+00    0    0
  211    1   16   16    0    0    0.8053238869E+01   -0.2310466528E+01   -0.2759568691E+01    0.8821995735E+01    0.1395681798E+00    0    0
  211    1   16   16    0    0    0.3352039576E+01   -0.1178670764E+01   -0.1129718184E+01    0.3731109381E+01    0.1395680010E+00    0    0
 -211    1   16   16    0    0    0.2102829933E+01   -0.7024365664E+00   -0.6776248217E+00    0.2322491169E+01    0.1395680010E+00    0    0
 -211    1   16   16    0    0    0.5514860153E+01   -0.2025519371E+01   -0.2181912661E+01    0.6268702507E+01    0.1395680457E+00    0    0
  111    1   16   16    0    0    0.6384587765E+01   -0.2466799974E+01   -0.2186949968E+01    0.7186726093E+01    0.1349640638E+00    0    0
</event>
<event>
   22 9999    1    0.9119999695E+02    0.7565275169E-02    0.1185000000E+00
   11   -1    0    0    0    0    0.0000000000E+00    0.0000000000E+00    0.8000000000E+02    0.8000000000E+02    0.5109988851E-03    0    0
  -11   -1    0    0    0    0    0.0000000000E+00    0.0000000000E+00   -0.8000000000E+02    0.8000000000E+02    0.5109988851E-03    0    0
  -24    2    1    2    0    0    0.5470716476E+01   -0.3267719030E+01   -0.2174185038E+01    0.8134690857E+02    0.8106777954E+02    0    0
   24    2    1    2    0    0   -0.5470715523E+01    0.3267724514E+01    0.2173302889E+01    0.7865221405E+02    0.7836351776E+02    0    0
   22    1    1    2    0    0   -0.8606368169E-06   -0.5325472102E-05    0.8823116077E-03    0.8823281387E-03    0.0000000000E+00    0    0
   15    2    3    3    0    0    0.2333257294E+02   -0.3519215393E+02    0.8772356033E+01    0.4316258621E+02    0.1777029991E+01    0    0
  -16    1    3    3    0    0   -0.1786185646E+02    0.3192443466E+02   -0.1094654083E+02    0.3818431854E+02    0.0000000000E+00    0    0
   16    1    4    4    0    0   -0.1734482193E+02   -0.4696972847E+01    0.3690680695E+02    0.4104895401E+02    0.0000000000E+00    0    0
  -15    2    4    4    0    0    0.1187410545E+02    0.7964697361E+01   -0.3473350525E+02    0.3760325623E+02    0.1777029991E+01    0    0
   16    1    6    6    0    0    0.4315654278E+01   -0.6810917377E+01    0.1603656173E+01    0.8221020699E+01    0.5285799489E-04    0    0
  -24    2    6    6    0    0    0.1901783562E+02   -0.2838262177E+02    0.7169044495E+01    0.3494326019E+02    0.1544370651E+01    0    0
 -211    1   11   11    0    0    0.4097137451E+01   -0.6201433659E+01    0.1309193492E+01    0.7548362732E+01    0.1395680010E+00    0    0
 -211    1   11   11    0    0    0.1721940875E+01   -0.2716506481E+01    0.6280956864E+00    0.3280010939E+01    0.1395679861E+00    0    0
  211    1   11   11    0    0    0.5985421658E+01   -0.8822426796E+01    0.2368891239E+01    0.1092206955E+02    0.1395679563E+00    0    0
  111    1   11   11    0    0    0.1122304082E+01   -0.1958885908E+01    0.5116589665E+00    0.2318795204E+01    0.1349639744E+00    0    0
  111    1   11   11    0    0    0.4472333431E+01   -0.6461609364E+01    0.1593912125E+01    0.8019534111E+01    0.1349639744E+00    0    0
  111    1   11   11    0    0    0.1618698835E+01   -0.2221760035E+01    0.7572933435E+00    0.2854489803E+01    0.1349639595E+00    0    0
  -16    1    9    9    0    0    0.3466713667E+01    0.1877234101E+01   -0.1018444633E+02    0.1092085361E+02    0.4094362666E-03    0    0
   24    2    9    9    0    0    0.8407858849E+01    0.6087776661E+01   -0.2455042458E+02    0.2668388176E+02    0.1246237874E+01    0    0
  321    1   19   19    0    0    0.3792415142E+01    0.2960664272E+01   -0.1122691822E+02    0.1222437477E+02    0.4936670065E+00    0    0
  211    1   19   19    0    0    0.3447094440E+01    0.2594517946E+01   -0.9884137154E+01    0.1078562164E+02    0.1395682991E+00    0    0
 -211    1   19   19    0    0    0.1168349028E+01    0.5325945616E+00   -0.3439368010E+01    0.3673884392E+01    0.1395679414E+00    0    0
</event>
<event>
   19 9999    1    0.9119999695E+02    0.7565275169E-02    0.1185000000E+00
   11   -1    0    0    0    0    0.0000000000E+00    0.0000000000E+00    0.8000000000E+02    0.8000000000E+02    0.5109988851E-03    0    0
  -11   -1    0    0    0    0    0.0000000000E+00    0.0000000000E+00   -0.8000000000E+02    0.8000000000E+02    0.5109988851E-03    0    0
  -24    2    1    2    0    0    0.9370471001E+01    0.1066915870E+01    0.3552433395E+02    0.7170959473E+02    0.6157388687E+02    0    0
   24    2    1    2    0    0   -0.9370471001E+01   -0.1066915870E+01   -0.3551698303E+02    0.8828305817E+02    0.8027140808E+02    0    0
   22    1    1    2    0    0    0.1082516974E-06   -0.1413241524E-07   -0.7348081097E-02    0.7348081097E-02    0.0000000000E+00    0    0
   15    2    3    3    0    0    0.9588980675E+01    0.8355415344E+01    0.5206902313E+02    0.5362930679E+02    0.1777029991E+01    0    0
  -16    1    3    3    0    0   -0.2185097337E+00   -0.7288499355E+01   -0.1654468918E+02    0.1808028603E+02    0.0000000000E+00    0    0
   16    1    4    4    0    0   -0.1434012222E+02    0.3020845222E+02   -0.4417581940E+02    0.5540480804E+02    0.0000000000E+00    0    0
  -15    2    4    4    0    0    0.4969651222E+01   -0.3127536774E+02    0.8658836365E+01    0.3287825012E+02    0.1777029991E+01    0    0
   16    1    6    6    0    0    0.4063552380E+01    0.3515973330E+01    0.1965475845E+02    0.2037606430E+02    0.5179004511E-03    0    0
  -24    2    6    6    0    0    0.5525805473E+01    0.4839770317E+01    0.3241631317E+02    0.3325535202E+02    0.1069148898E+01    0    0
 -211    1   11   11    0    0    0.1058217406E+01    0.8767449856E+00    0.6017585754E+01    0.6174084663E+01    0.1395683289E+00    0    0
 -211    1   11   11    0    0    0.1248671174E+01    0.1018356323E+01    0.7601507187E+01    0.7771655083E+01    0.1395679116E+00    0    0
  211    1   11   11    0    0    0.1796756864E+01    0.1988840818E+01    0.1064144230E+02    0.1097467995E+02    0.1395680457E+00    0    0
  111    1   11   11    0    0    0.1422159076E+01    0.9558276534E+00    0.8155773163E+01    0.8334926605E+01    0.1349638999E+00    0    0
  -16    1    9    9    0    0    0.3482661963E+01   -0.1879955673E+02    0.5016774654E+01    0.1976664543E+02    0.1364787604E-03    0    0
  323    2    9    9    0    0    0.1487184525E+01   -0.1247704220E+02    0.3642402172E+01    0.1311289883E+02    0.8903430700E+00    0    0
  211    1   17   17    0    0    0.4343182445E+00   -0.2673293352E+01    0.5491077304E+00    0.2766970873E+01    0.1395680457E+00    0    0
  310    1   17   17    0    0    0.1052866220E+01   -0.9803749084E+01    0.3093294382E+01    0.1034592724E+02    0.4977200627E+00    0    0
</event>
<event>
   23 9999    1    0.9119999695E+02    0.7565275169E-02    0.1185000000E+00
   11   -1    0    0    0    0    0.0000000000E+00    0.0000000000E+00    0.8000000000E+02    0.8000000000E+02    0.5109988851E-03    0    0
  -11   -1    0    0    0    0    0.0000000000E+00    0.0000000000E+00   -0.8000000000E+02    0.8000000000E+02    0.5109988851E-03    0    0
  -24    2    1    2    0    0   -0.4014556885E+01    0.2015713215E+01    0.3016497135E+01    0.8071788025E+02    0.8053630829E+02    0    0
   24    2    1    2    0    0    0.4014565945E+01   -0.2015716076E+01   -0.3016718626E+01    0.7928121185E+02    0.7909632874E+02    0    0
   22    1    1    2    0    0    0.1640971732E-05   -0.7015192409E-06    0.5661940668E-03    0.5661969190E-03    0.0000000000E+00    0    0
   22    1    1    2    0    0   -0.1251701724E-04    0.2171922915E-05   -0.3435300605E-03    0.3437648702E-03    0.0000000000E+00    0    0
   15    2    3    3    0    0    0.3762360382E+02   -0.5418004990E+01   -0.2110710859E+01    0.3811172104E+02    0.1777029991E+01    0    0
  -16    1    3    3    0    0   -0.4163816071E+02    0.7433718681E+01    0.5127208233E+01    0.4260615921E+02    0.0000000000E+00    0    0
   16    1    4    4    0    0    0.2327107620E+02   -0.3265276718E+02    0.9030243874E+01    0.4110099030E+02    0.0000000000E+00    0    0
  -15    2    4    4    0    0   -0.1925650978E+02    0.3063704872E+02   -0.1204696274E+02    0.3818021774E+02    0.1777029991E+01    0    0
   16    1    7    7    0    0    0.1409926891E+02   -0.2029470921E+01   -0.9941015840E+00    0.1427922916E+02    0.3662109375E-03    0    0
  -24    2    7    7    0    0    0.2352581406E+02   -0.3388747454E+01   -0.1116692424E+01    0.2383399010E+02    0.1365493298E+01    0    0
 -211    1   12   12    0    0    0.1150145435E+02   -0.1261482596E+01   -0.6119117737E+00    0.1158743763E+02    0.1395686865E+00    0    0
 -211    1   12   12    0    0    0.1975600243E+01   -0.2714670300E+00    0.5098957941E-01    0.1999692440E+01    0.1395680010E+00    0    0
  211    1   12   12    0    0    0.8717264175E+01   -0.1509171724E+01   -0.5356468558E+00    0.8864236832E+01    0.1395679563E+00    0    0
  111    1   12   12    0    0    0.1331496000E+01   -0.3466264009E+00   -0.2012346126E-01    0.1382624865E+01    0.1349640638E+00    0    0
  -16    1   10   10    0    0   -0.7900070667E+01    0.1205396652E+02   -0.5076840878E+01    0.1528016853E+02    0.8631674427E-04    0    0
   24    2   10   10    0    0   -0.1135719776E+02    0.1858428955E+02   -0.6970596313E+01    0.2290155411E+02    0.1237024665E+01    0    0
  211    1   18   18    0    0   -0.3758363485E+01    0.6053238392E+01   -0.2455736160E+01    0.7537712574E+01    0.1395680010E+00    0    0
  211    1   18   18    0    0   -0.8867025971E+00    0.1590156078E+01   -0.5485569835E+00    0.1906628370E+01    0.1395680010E+00    0    0
  211    1   18   18    0    0   -0.2367062569E+01    0.3510319948E+01   -0.1438356161E+01    0.4473665237E+01    0.1395680010E+00    0    0
 -211    1   18   18    0    0   -0.6914673448E+00    0.1039850593E+01   -0.3142822981E+00    0.1295248628E+01    0.1395680457E+00    0    0
 -211    1   18   18    0    0   -0.3653601885E+01    0.6390724182E+01   -0.2213665009E+01    0.7688299656E+01    0.1395679116E+00    0    0
</event>
<event>
   19 9999    1    0.9119999695E+02    0.7565275169E-02    0.1185000000E+00
   11   -1    0    0    0    0    0.0000000000E+00    0.0000000000E+00    0.8000000000E+02    0.8000000000E+02    0.5109988851E-03    0    0
  -11   -1    0    0    0    0    0.0000000000E+00    0.0000000000E+00   -0.8000000000E+02    0.8000000000E+02    0.5109988851E-03    0    0
  -24    2    1    2    0    0   -0.1541157055E+02    0.8189892769E+01   -0.8143225670E+01    0.6997901154E+02    0.6727674103E+02    0    0
   24    2    1    2    0    0    0.1402940941E+02   -0.8290392876E+01    0.3983456612E+01    0.8534288025E+02    0.8367785645E+02    0    0
   22    1    1    2    0    0    0.1382161379E+01    0.1005299985E+00    0.4310287476E+01    0.4527588367E+01    0.0000000000E+00    0    0
   22    1    1    2    0    0   -0.4605707602E-06   -0.2937800855E-04   -0.1505189240E+00    0.1505189389E+00    0.0000000000E+00    0    0
   15    2    3    3    0    0    0.1271755886E+02   -0.1384023476E+02    0.1770304680E+02    0.2588134766E+02    0.1777029991E+01    0    0
  -16    1    3    3    0    0   -0.2812912941E+02    0.2203012657E+02   -0.2584627342E+02    0.4409766769E+02    0.0000000000E+00    0    0
   16    1    4    4    0    0   -0.2479564095E+02   -0.3115907669E+02    0.5637075424E+01    0.4021800995E+02    0.0000000000E+00    0    0
  -15    2    4    4    0    0    0.3882505035E+02    0.2286868286E+02   -0.1653618813E+01    0.4512486649E+02    0.1777029991E+01    0    0
   16    1    7    7    0    0    0.6509395599E+01   -0.7001183987E+01    0.8353644371E+01    0.1269536018E+02    0.3452669771E-03    0    0
*****    2    7    7    0    0    0.6208663940E+01   -0.6839595795E+01    0.9350098610E+01    0.1318700409E+02    0.1070122838E+01    0    0
  111    1   12   12    0    0    0.5571661472E+01   -0.6318850517E+01    0.8419578552E+01    0.1191128826E+02    0.1349641681E+00    0    0
  111    1   12   12    0    0    0.2938223481E+00   -0.2753000259E+00    0.5128156543E+00    0.6658203602E+00    0.1349638700E+00    0    0
 -211    1   12   12    0    0    0.3431804478E+00   -0.2454455346E+00    0.4177055359E+00    0.6098963022E+00    0.1395680308E+00    0    0
  -16    1   10   10    0    0    0.1832156754E+02    0.1060236073E+02   -0.3818736970E+00    0.2117157745E+02    0.1220703125E-03    0    0
   24    2   10   10    0    0    0.2050501251E+02    0.1226722336E+02   -0.1271810174E+01    0.2395506477E+02    0.1134614229E+01    0    0
  321    1   17   17    0    0    0.1310426998E+02    0.7995057583E+01   -0.6382557750E+00    0.1537185478E+02    0.4936669767E+00    0    0
  130    1   17   17    0    0    0.7400739670E+01    0.4272165298E+01   -0.6335544586E+00    0.8583208084E+01    0.4977199733E+00    0    0
</event>
<event>
   15 9999    1    0.9119999695E+02    0.7565275169E-02    0.1185000000E+00
   11   -1    0    0    0    0    0.0000000000E+00    0.0000000000E+00    0.8000000000E+02    0.8000000000E+02    0.5109988851E-03    0    0
  -11   -1    0    0    0    0    0.0000000000E+00    0.0000000000E+00   -0.8000000000E+02    0.8000000000E+02    0.5109988851E-03    0    0
  -24    2    1    2    0    0    0.1035172653E+02    0.1084209633E+02    0.1998253822E+02    0.7590281677E+02    0.7167445374E+02    0    0
   24    2    1    2    0    0   -0.1035172653E+02   -0.1084209633E+02   -0.1998253822E+02    0.8409718323E+02    0.8030146027E+02    0    0
   15    2    3    3    0    0   -0.1417131519E+02   -0.2558762932E+02    0.7493534088E+01    0.3024671555E+02    0.1777029991E+01    0    0
  -16    1    3    3    0    0    0.2452304077E+02    0.3642972565E+02    0.1248900318E+02    0.4565610123E+02    0.0000000000E+00    0    0
   16    1    4    4    0    0   -0.2616433907E+02   -0.3633667374E+02   -0.2823082733E+02    0.5293303299E+02    0.0000000000E+00    0    0
  -15    2    4    4    0    0    0.1581261253E+02    0.2549457550E+02    0.8248289108E+01    0.3116414833E+02    0.1777029991E+01    0    0
   16    1    5    5    0    0   -0.1397680473E+02   -0.2479460526E+02    0.7427254200E+01    0.2941577148E+02    0.1556097268E-03    0    0
 -211    1    5    5    0    0   -0.1950689852E+00   -0.7940328121E+00    0.6657499820E-01    0.8321366906E+00    0.1395680457E+00    0    0
  -16    1    8    8    0    0    0.1112230420E+01    0.2135308981E+01    0.4937073290E+00    0.2457711935E+01    0.2324149536E-03    0    0
   24    2    8    8    0    0    0.1470100498E+02    0.2336026955E+02    0.7754906654E+01    0.2870766449E+02    0.1472974300E+01    0    0
  321    1   12   12    0    0    0.5262792110E+01    0.8733846664E+01    0.2623522043E+01    0.1054057026E+02    0.4936670065E+00    0    0
  211    1   12   12    0    0    0.8172331810E+01    0.1308268833E+02    0.4551099300E+01    0.1608339882E+02    0.1395691931E+00    0    0
 -211    1   12   12    0    0    0.1265878081E+01    0.1543732166E+01    0.5802842379E+00    0.2083690405E+01    0.1395681053E+00    0    0
</event>
<event>
   20 9999    1    0.9119999695E+02    0.7565275169E-02    0.1185000000E+00
   11   -1    0    0    0    0    0.0000000000E+00    0.0000000000E+00    0.8000000000E+02    0.8000000000E+02    0.5109988851E-03    0    0
  -11   -1    0    0    0    0    0.0000000000E+00    0.0000000000E+00   -0.8000000000E+02    0.8000000000E+02    0.5109988851E-03    0    0
  -24    2    1    2    0    0   -0.4793972492E+01   -0.1646777630E+01    0.7794595718E+01    0.8033285522E+02    0.7979296875E+02    0    0
   24    2    1    2    0    0    0.4793972492E+01    0.1646777749E+01   -0.7793671131E+01    0.7966622162E+02    0.7912187195E+02    0    0
   22    1    1    2    0    0   -0.1315726053E-06   -0.4171307921E-07   -0.9246034897E-03    0.9246035479E-03    0.0000000000E+00    0    0
   15    2    3    3    0    0   -0.1911805344E+02   -0.3057285881E+02    0.2484776878E+02    0.4382658005E+02    0.1777029991E+01    0    0
  -16    1    3    3    0    0    0.1432408047E+02    0.2892608070E+02   -0.1705317307E+02    0.3650627518E+02    0.0000000000E+00    0    0
   16    1    4    4    0    0   -0.1720963860E+02   -0.3280709457E+02    0.3514193535E+01    0.3721326065E+02    0.0000000000E+00    0    0
  -15    2    4    4    0    0    0.2200361061E+02    0.3445387268E+02   -0.1130786514E+02    0.4245296097E+02    0.1777029991E+01    0    0
   16    1    6    6    0    0   -0.8037331581E+01   -0.1400220299E+02    0.1143006229E+02    0.1978147316E+02    0.1831054688E-03    0    0
 -323    2    6    6    0    0   -0.1108147335E+02   -0.1657185936E+02    0.1341868496E+02    0.2404682922E+02    0.8737279177E+00    0    0
 -211    1   11   11    0    0   -0.4178258419E+01   -0.6678800106E+01    0.5449514866E+01    0.9580234528E+01    0.1395679861E+00    0    0
  130    1   11   11    0    0   -0.6903214455E+01   -0.9893058777E+01    0.7969169617E+01    0.1446659470E+02    0.4977201223E+00    0    0
  -16    1    9    9    0    0    0.1277974129E+01    0.1919893026E+01   -0.5140112042E+00    0.2362925053E+01    0.3051757812E-04    0    0
   24    2    9    9    0    0    0.2072650337E+02    0.3253533554E+02   -0.1079429913E+02    0.4009170532E+02    0.1640752554E+01    0    0
  211    1   15   15    0    0    0.4251893997E+01    0.6657995224E+01   -0.2047146559E+01    0.8161972046E+01    0.1395680010E+00    0    0
  211    1   15   15    0    0    0.5619455338E+01    0.9327247620E+01   -0.2976289988E+01    0.1128953457E+02    0.1395679712E+00    0    0
  211    1   15   15    0    0    0.4790645123E+01    0.7236967564E+01   -0.2342875719E+01    0.8990691185E+01    0.1395679861E+00    0    0
 -211    1   15   15    0    0    0.4102129936E+01    0.5871833324E+01   -0.2029370308E+01    0.7446053982E+01    0.1395680010E+00    0    0
 -211    1   15   15    0    0    0.1962378263E+01    0.3441292524E+01   -0.1398615837E+01    0.4203454494E+01    0.1395679265E+00    0    0
</event>
<event>
   19 9999    1    0.9119999695E+02    0.7565275169E-02    0.1185000000E+00
   11   -1    0    0    0    0    0.0000000000E+00    0.0000000000E+00    0.8000000000E+02    0.8000000000E+02    0.5109988851E-03    0    0
  -11   -1    0    0    0    0    0.0000000000E+00    0.0000000000E+00   -0.8000000000E+02    0.8000000000E+02    0.5109988851E-03    0    0
  -24    2    1    2    0    0   -0.2502801323E+02   -0.1498241425E+01    0.3409432220E+02    0.9035847473E+02    0.7983473969E+02    0    0
   24    2    1    2    0    0    0.2502912903E+02    0.1498871922E+01   -0.3403673935E+02    0.6958393097E+02    0.5526951981E+02    0    0
   22    1    1    2    0    0   -0.1114143291E-02   -0.6304507260E-03   -0.5758098140E-01    0.5759521201E-01    0.0000000000E+00    0    0
   15    2    3    3    0    0   -0.3724326706E+02   -0.2881604767E+02    0.3752392578E+02    0.6023809814E+02    0.1777029991E+01    0    0
  -16    1    3    3    0    0    0.1221525288E+02    0.2731780624E+02   -0.3429604292E+01    0.3012037849E+02    0.0000000000E+00    0    0
   16    1    4    4    0    0   -0.2501918077E+01    0.2117286301E+02    0.3284135759E+00    0.2132270241E+02    0.0000000000E+00    0    0
  -15    2    4    4    0    0    0.2753104591E+02   -0.1967399216E+02   -0.3436515427E+02    0.4826122665E+02    0.1777029991E+01    0    0
   16    1    6    6    0    0   -0.7254714012E+01   -0.5658771038E+01    0.7600823879E+01    0.1193419838E+02    0.4094362666E-03    0    0
  -24    2    6    6    0    0   -0.2999001694E+02   -0.2315841103E+02    0.2992457771E+02    0.4830627060E+02    0.1517263293E+01    0    0
 -321    1   11   11    0    0   -0.1040304947E+02   -0.8354077339E+01    0.1069733620E+02    0.1710820770E+02    0.4936671257E+00    0    0
  111    1   11   11    0    0   -0.7296059608E+01   -0.5853931904E+01    0.7176086426E+01    0.1179048061E+02    0.1349641830E+00    0    0
  310    1   11   11    0    0   -0.1229090595E+02   -0.8950400352E+01    0.1205115223E+02    0.1940757751E+02    0.4977200031E+00    0    0
  -16    1    9    9    0    0    0.5834399223E+01   -0.4495037556E+01   -0.7805746555E+01    0.1073197365E+02    0.6401421269E-03    0    0
   24    2    9    9    0    0    0.2169772911E+02   -0.1517972755E+02   -0.2656075668E+02    0.3753115082E+02    0.1377625346E+01    0    0
  321    1   16   16    0    0    0.1099835396E+02   -0.7749658585E+01   -0.1359466839E+02    0.1913320923E+02    0.4936669469E+00    0    0
  111    1   16   16    0    0    0.2991988420E+01   -0.1796705008E+01   -0.3508802652E+01    0.4950762749E+01    0.1349639893E+00    0    0
  130    1   16   16    0    0    0.7707384109E+01   -0.5633362293E+01   -0.9457282066E+01    0.1344717312E+02    0.4977200031E+00    0    0
</event>
<event>
   16 9999    1    0.9119999695E+02    0.7565275169E-02    0.1185000000E+00
   11   -1    0    0    0    0    0.0000000000E+00    0.0000000000E+00    0.8000000000E+02    0.8000000000E+02    0.5109988851E-03    0    0
  -11   -1    0    0    0    0    0.0000000000E+00    0.0000000000E+00   -0.8000000000E+02    0.8000000000E+02    0.5109988851E-03    0    0
  -24    2    1    2    0    0    0.4277120590E+01    0.1217687726E+01    0.3247775316E+01    0.7985639191E+02    0.7966629791E+02    0    0
   24    2    1    2    0    0   -0.4277107716E+01   -0.1217677951E+01   -0.3250002623E+01    0.8014138031E+02    0.7995187378E+02    0    0
   22    1    1    2    0    0   -0.1280420565E-04   -0.9804301044E-05    0.2227174584E-02    0.2227233024E-02    0.0000000000E+00    0    0
   15    2    3    3    0    0    0.2545783806E+02    0.2482187271E+02    0.2310292625E+02    0.4243972015E+02    0.1777029991E+01    0    0
  -16    1    3    3    0    0   -0.2118071747E+02   -0.2360418510E+02   -0.1985515022E+02    0.3741667175E+02    0.0000000000E+00    0    0
   16    1    4    4    0    0    0.3595355988E+02   -0.3870063543E+01    0.1025041485E+02    0.3758599472E+02    0.0000000000E+00    0    0
  -15    2    4    4    0    0   -0.4023066711E+02    0.2652385712E+01   -0.1350041771E+02    0.4255538559E+02    0.1777029991E+01    0    0
   16    1    6    6    0    0    0.4025628090E+01    0.4449759960E+01    0.3919671535E+01    0.7167277813E+01    0.8715560398E-04    0    0
  -24    2    6    6    0    0    0.2143321228E+02    0.2037309074E+02    0.1918416405E+02    0.3527411270E+02    0.1336258531E+01    0    0
 -321    1   11   11    0    0    0.1124981689E+02    0.1122524357E+02    0.1004057121E+02    0.1880481911E+02    0.4936670363E+00    0    0
  130    1   11   11    0    0    0.1018339539E+02    0.9147847176E+01    0.9143592834E+01    0.1646929550E+02    0.4977200329E+00    0    0
  -16    1    9    9    0    0   -0.7821600914E+01    0.9886353463E-01   -0.2345543146E+01    0.8166320801E+01    0.0000000000E+00    0    0
  -11    1    9    9    0    0   -0.2834932327E+02    0.2453202009E+01   -0.1008452797E+02    0.3018940353E+02    0.5459150416E-03    0    0
   12    1    9    9    0    0   -0.4061326981E+01    0.1004243195E+00   -0.1070877790E+01    0.4201337814E+01    0.0000000000E+00    0    0
</event>
<event>
   16 9999    1    0.9119999695E+02    0.7565275169E-02    0.1185000000E+00
   11   -1    0    0    0    0    0.0000000000E+00    0.0000000000E+00    0.8000000000E+02    0.8000000000E+02    0.5109988851E-03    0    0
  -11   -1    0    0    0    0    0.0000000000E+00    0.0000000000E+00   -0.8000000000E+02    0.8000000000E+02    0.5109988851E-03    0    0
  -24    2    1    2    0    0   -0.7467244148E+01    0.7743951797E+01   -0.6894475937E+01    0.8239048767E+02    0.8139367676E+02    0    0
   24    2    1    2    0    0    0.7467244148E+01   -0.7743951797E+01    0.6894475937E+01    0.7760951233E+02    0.7655046082E+02    0    0
   15    2    3    3    0    0    0.1723944855E+02   -0.1229581070E+02    0.2801377869E+02    0.3516127396E+02    0.1777029991E+01    0    0
  -16    1    3    3    0    0   -0.2470669174E+02    0.2003976250E+02   -0.3490825272E+02    0.4722921753E+02    0.0000000000E+00    0    0
   16    1    4    4    0    0    0.1984586525E+02   -0.2126263809E+02   -0.2658161545E+02    0.3940229034E+02    0.0000000000E+00    0    0
  -15    2    4    4    0    0   -0.1237862110E+02    0.1351868534E+02    0.3347609329E+02    0.3820721817E+02    0.1777029991E+01    0    0
   16    1    5    5    0    0    0.1530762959E+02   -0.1065163708E+02    0.2447756958E+02    0.3077226448E+02    0.1258271950E-03    0    0
   11    1    5    5    0    0    0.1163471818E+01   -0.1131407142E+01    0.1808668852E+01    0.2430027246E+01    0.5179004511E-03    0    0
  -12    1    5    5    0    0    0.7690256834E+00   -0.5132505298E+00    0.1728642106E+01    0.1960364699E+01    0.8631674427E-04    0    0
  -16    1    8    8    0    0   -0.4558461189E+01    0.4774369240E+01    0.1208066654E+02    0.1376650524E+02    0.3238675708E-03    0    0
   24    2    8    8    0    0   -0.7820646763E+01    0.8744849205E+01    0.2139674377E+02    0.2444221878E+02    0.1402335882E+01    0    0
  321    1   13   13    0    0   -0.4237535954E+01    0.4968610287E+01    0.1153250694E+02    0.1326220989E+02    0.4936669767E+00    0    0
  211    1   13   13    0    0   -0.1966169238E+01    0.1674949169E+01    0.4377064228E+01    0.5084235191E+01    0.1395681798E+00    0    0
 -211    1   13   13    0    0   -0.1616940975E+01    0.2101288319E+01    0.5487170219E+01    0.6095771313E+01    0.1395681798E+00    0    0
</event>
<event>
   19 9999    1    0.9119999695E+02    0.7565275169E-02    0.1185000000E+00
   11   -1    0    0    0    0    0.0000000000E+00    0.0000000000E+00    0.8000000000E+02    0.8000000000E+02    0.5109988851E-03    0    0
  -11   -1    0    0    0    0    0.0000000000E+00    0.0000000000E+00   -0.8000000000E+02    0.8000000000E+02    0.5109988851E-03    0    0
  -24    2    1    2    0    0   -0.1898127317E+01    0.3742545366E+01   -0.3101858616E+01    0.7819812012E+02    0.7802381134E+02    0    0
   24    2    1    2    0    0    0.1898198009E+01   -0.3741945267E+01    0.3101909637E+01    0.8180126953E+02    0.8163468170E+02    0    0
   22    1    1    2    0    0   -0.7063765224E-04   -0.6001683651E-03   -0.5098927431E-04    0.6064582849E-03    0.0000000000E+00    0    0
   15    2    3    3    0    0    0.2194539833E+02    0.2038626099E+02    0.2401915550E+02    0.3843537140E+02    0.1777029991E+01    0    0
  -16    1    3    3    0    0   -0.2384352493E+02   -0.1664371681E+02   -0.2712101364E+02    0.3976275253E+02    0.0000000000E+00    0    0
   16    1    4    4    0    0    0.2969399643E+02    0.1208143425E+02    0.2693761635E+02    0.4187277985E+02    0.0000000000E+00    0    0
  -15    2    4    4    0    0   -0.2779579926E+02   -0.1582337952E+02   -0.2383570671E+02    0.3992849350E+02    0.1777029991E+01    0    0
   16    1    6    6    0    0    0.4392981052E+01    0.4252966404E+01    0.5281884670E+01    0.8079871178E+01    0.3558930475E-03    0    0
  -24    2    6    6    0    0    0.1755328178E+02    0.1613409805E+02    0.1873821640E+02    0.3035701370E+02    0.1414491534E+01    0    0
 -321    1   11   11    0    0    0.4359061718E+01    0.4167826653E+01    0.5086435318E+01    0.7904918194E+01    0.4936669767E+00    0    0
 -211    1   11   11    0    0    0.6092682838E+01    0.5227463722E+01    0.5892477512E+01    0.9959313393E+01    0.1395679116E+00    0    0
  211    1   11   11    0    0    0.7101535320E+01    0.6738807201E+01    0.7759302616E+01    0.1249278164E+02    0.1395678967E+00    0    0
  -16    1    9    9    0    0   -0.7846013546E+01   -0.4246953011E+01   -0.6809911251E+01    0.1122369957E+02    0.5676597939E-03    0    0
   24    2    9    9    0    0   -0.1995087814E+02   -0.1157704830E+02   -0.1702673149E+02    0.2870636177E+02    0.1442241192E+01    0    0
  321    1   16   16    0    0   -0.1240863132E+02   -0.7164378166E+01   -0.1039127254E+02    0.1770662880E+02    0.4936668575E+00    0    0
  111    1   16   16    0    0   -0.2883181334E+01   -0.1514379501E+01   -0.2626838923E+01    0.4186236858E+01    0.1349636614E+00    0    0
  130    1   16   16    0    0   -0.4659066677E+01   -0.2898291588E+01   -0.4008621216E+01    0.6813498974E+01    0.4977199733E+00    0    0
</event>
<event>
   16 9999    1    0.9119999695E+02    0.7565275169E-02    0.1185000000E+00
   11   -1    0    0    0    0    0.0000000000E+00    0.0000000000E+00    0.8000000000E+02    0.8000000000E+02    0.5109988851E-03    0    0
  -11   -1    0    0    0    0    0.0000000000E+00    0.0000000000E+00   -0.8000000000E+02    0.8000000000E+02    0.5109988851E-03    0    0
  -24    2    1    2    0    0   -0.7760951519E+00   -0.6888640881E+01    0.4765397549E+01    0.7921767426E+02    0.7876976013E+02    0    0
   24    2    1    2    0    0    0.7760951519E+00    0.6888640881E+01   -0.4765397549E+01    0.8078232574E+02    0.8034313202E+02    0    0
   15    2    3    3    0    0    0.2251095581E+02    0.2846077728E+02    0.6234580040E+01    0.3686172485E+02    0.1777029991E+01    0    0
  -16    1    3    3    0    0   -0.2328705025E+02   -0.3534941864E+02   -0.1469182491E+01    0.4235595322E+02    0.0000000000E+00    0    0
   16    1    4    4    0    0   -0.5182920456E+01    0.4149861526E+02    0.9413145065E+01    0.4286729813E+02    0.0000000000E+00    0    0
  -15    2    4    4    0    0    0.5959015846E+01   -0.3460997391E+02   -0.1417854309E+02    0.3791502762E+02    0.1777029991E+01    0    0
   16    1    5    5    0    0    0.1379252338E+02    0.1707958412E+02    0.3216125727E+01    0.2218759537E+02    0.0000000000E+00    0    0
   13    1    5    5    0    0    0.5099129677E+01    0.6894478321E+01    0.2182789326E+01    0.8849332809E+01    0.1056591719E+00    0    0
  -14    1    5    5    0    0    0.3620189428E+01    0.4487834930E+01    0.8359107971E+00    0.5826249123E+01    0.4315837214E-04    0    0
  -16    1    8    8    0    0    0.1023929834E+01   -0.7209063053E+01   -0.3310619116E+01    0.7998701096E+01    0.5106567405E-03    0    0
   24    2    8    8    0    0    0.4935319901E+01   -0.2740227318E+02   -0.1086848164E+02    0.2991781616E+02    0.1307603955E+01    0    0
  111    1   13   13    0    0    0.8290523291E+00   -0.3739920616E+01   -0.1770834088E+01    0.4222369194E+01    0.1349631995E+00    0    0
  111    1   13   13    0    0    0.1743017316E+01   -0.8542786598E+01   -0.3274581909E+01    0.9314419746E+01    0.1349641830E+00    0    0
  321    1   13   13    0    0    0.2363250732E+01   -0.1511956787E+02   -0.5823066235E+01    0.1638102913E+02    0.4936669767E+00    0    0
</event>
<event>
   20 9999    1    0.9119999695E+02    0.7565275169E-02    0.1185000000E+00
   11   -1    0    0    0    0    0.0000000000E+00    0.0000000000E+00    0.8000000000E+02    0.8000000000E+02    0.5109988851E-03    0    0
  -11   -1    0    0    0    0    0.0000000000E+00    0.0000000000E+00   -0.8000000000E+02    0.8000000000E+02    0.5109988851E-03    0    0
  -24    2    1    2    0    0   -0.1888394165E+02   -0.1673263741E+02    0.1613048434E+01    0.7501989746E+02    0.7063143158E+02    0    0
   24    2    1    2    0    0    0.1889444351E+02    0.1673768806E+02   -0.1270780206E+01    0.8463627625E+02    0.8077458954E+02    0    0
   22    1    1    2    0    0    0.2155797847E-04   -0.1152345649E-03   -0.2992441356E+00    0.2992441654E+00    0.0000000000E+00    0    0
   22    1    1    2    0    0   -0.1052340399E-01   -0.4934479482E-02   -0.4261572286E-01    0.4417228699E-01    0.0000000000E+00    0    0
   22    1    1    2    0    0   -0.1509696546E-06   -0.6058148188E-06   -0.4084233078E-03    0.4084237735E-03    0.0000000000E+00    0    0
   15    2    3    3    0    0    0.1907234955E+02   -0.1102919483E+02    0.2231640053E+02    0.3140982819E+02    0.1777029991E+01    0    0
  -16    1    3    3    0    0   -0.3795629120E+02   -0.5703443050E+01   -0.2070335197E+02    0.4361006927E+02    0.0000000000E+00    0    0
   16    1    4    4    0    0    0.2350343704E+01   -0.2721648407E+02    0.1918277168E+02    0.3338023376E+02    0.0000000000E+00    0    0
  -15    2    4    4    0    0    0.1654409981E+02    0.4395417404E+02   -0.2045355225E+02    0.5125604630E+02    0.1777029991E+01    0    0
   16    1    8    8    0    0    0.1401470470E+02   -0.7845041752E+01    0.1558485413E+02    0.2237955093E+02    0.2441406250E-03    0    0
 -213    2    8    8    0    0    0.5058395386E+01   -0.3184586763E+01    0.6732425213E+01    0.9031512260E+01    0.7167325616E+00    0    0
 -211    1   13   13    0    0    0.3655488968E+01   -0.2586781979E+01    0.5227106571E+01    0.6884487152E+01    0.1395675391E+00    0    0
  111    1   13   13    0    0    0.1402906418E+01   -0.5978049040E+00    0.1505318642E+01    0.2147025108E+01    0.1349640936E+00    0    0
  -16    1   11   11    0    0    0.4239794731E+01    0.1063045979E+02   -0.5258384228E+01    0.1259496403E+02    0.2441406250E-03    0    0
   24    2   11   11    0    0    0.1230495739E+02    0.3332544708E+02   -0.1519597340E+02    0.3866310120E+02    0.1385798931E+01    0    0
  321    1   17   17    0    0    0.6921274662E+01    0.1794546127E+02   -0.8187356949E+01    0.2090980911E+02    0.4936670661E+00    0    0
  111    1   17   17    0    0    0.1303621531E+01    0.3508609295E+01   -0.1755926132E+01    0.4136576176E+01    0.1349641234E+00    0    0
  130    1   17   17    0    0    0.4080060959E+01    0.1187137413E+02   -0.5252690792E+01    0.1361671448E+02    0.4977200329E+00    0    0
</event>
<event>
   23 9999    1    0.9119999695E+02    0.7565275169E-02    0.1185000000E+00
   11   -1    0    0    0    0    0.0000000000E+00    0.0000000000E+00    0.8000000000E+02    0.8000000000E+02    0.5109988851E-03    0    0
  -11   -1    0    0    0    0    0.0000000000E+00    0.0000000000E+00   -0.8000000000E+02    0.8000000000E+02    0.5109988851E-03    0    0
  -24    2    1    2    0    0    0.3775106192E+01    0.2163625717E+01    0.7601502895E+01    0.8016827393E+02    0.7968837738E+02    0    0
   24    2    1    2    0    0   -0.4027382851E+01   -0.2486448765E+01   -0.6927084923E+01    0.7904261017E+02    0.7859610748E+02    0    0
   22    1    1    2    0    0    0.2522766292E+00    0.3228229284E+00   -0.6744182110E+00    0.7891122103E+00    0.0000000000E+00    0    0
   15    2    3    3    0    0   -0.2766375351E+02   -0.1554288006E+02   -0.1743651962E+02    0.3624988937E+02    0.1777029991E+01    0    0
  -16    1    3    3    0    0    0.3143885994E+02    0.1770650673E+02    0.2503802299E+02    0.4391838837E+02    0.0000000000E+00    0    0
   16    1    4    4    0    0    0.6410217762E+01   -0.3189111519E+02    0.1915029907E+02    0.3774742889E+02    0.0000000000E+00    0    0
  -15    2    4    4    0    0   -0.1080669880E+02    0.2950692940E+02   -0.2513732338E+02    0.4028009033E+02    0.1777029991E+01    0    0
   22    1    4    4    0    0    0.3690979779E+00   -0.1022625566E+00   -0.9400613904E+00    0.1015089273E+01    0.0000000000E+00    0    0
   16    1    6    6    0    0   -0.3895688057E+00   -0.3264164627E+00   -0.2718378305E+00    0.5763746500E+00    0.5930907209E-03    0    0
  -24    2    6    6    0    0   -0.2727527237E+02   -0.1521707535E+02   -0.1716536713E+02    0.3567493820E+02    0.1597377181E+01    0    0
  221    1   12   12    0    0   -0.1781681252E+02   -0.9617447853E+01   -0.1121233368E+02    0.2315063095E+02    0.5487999320E+00    0    0
 -211    1   12   12    0    0   -0.6268274307E+01   -0.3355164289E+01   -0.3662460089E+01    0.7998842239E+01    0.1395679563E+00    0    0
  111    1   12   12    0    0   -0.3190183640E+01   -0.2244462013E+01   -0.2290572405E+01    0.4525463581E+01    0.1349640191E+00    0    0
  -16    1    9    9    0    0   -0.7420196533E+00    0.2487733603E+01   -0.1855625987E+01    0.3191042662E+01    0.0000000000E+00    0    0
   24    2    9    9    0    0   -0.1006509972E+02    0.2702034569E+02   -0.2328267670E+02    0.3709061813E+02    0.1492045283E+01    0    0
  211    1   17   17    0    0   -0.2282300234E+01    0.5748236179E+01   -0.4735826969E+01    0.7790932178E+01    0.1395680010E+00    0    0
  211    1   17   17    0    0   -0.8239735365E+00    0.1997618914E+01   -0.1643781900E+01    0.2718622684E+01    0.1395680010E+00    0    0
  211    1   17   17    0    0   -0.2989621639E+01    0.7268756390E+01   -0.6421525955E+01    0.1015027523E+02    0.1395679116E+00    0    0
 -211    1   17   17    0    0   -0.1715948224E+01    0.5196558475E+01   -0.4440069199E+01    0.7048572540E+01    0.1395679861E+00    0    0
 -211    1   17   17    0    0   -0.1437496185E+01    0.4331030846E+01   -0.3803662777E+01    0.5942351341E+01    0.1395680159E+00    0    0
  111    1   17   17    0    0   -0.8157601357E+00    0.2478143454E+01   -0.2237808228E+01    0.3439862490E+01    0.1349639744E+00    0    0
</event>
<event>
   21 9999    1    0.9119999695E+02    0.7565275169E-02    0.1185000000E+00
   11   -1    0    0    0    0    0.0000000000E+00    0.0000000000E+00    0.8000000000E+02    0.8000000000E+02    0.5109988851E-03    0    0
  -11   -1    0    0    0    0    0.0000000000E+00    0.0000000000E+00   -0.8000000000E+02    0.8000000000E+02    0.5109988851E-03    0    0
  -24    2    1    2    0    0    0.1534991145E+01   -0.3881294131E+00    0.9185234070E+01    0.7755081177E+02    0.7698865509E+02    0    0
   24    2    1    2    0    0   -0.1534922481E+01    0.3881974220E+00   -0.9513553619E+01    0.8212087250E+02    0.8155258179E+02    0    0
   22    1    1    2    0    0   -0.6865562318E-04   -0.6798708637E-04    0.3283195198E+00    0.3283195198E+00    0.0000000000E+00    0    0
   15    2    3    3    0    0   -0.2307104492E+02   -0.1686890602E+02    0.2990716362E+02    0.4140566635E+02    0.1777029991E+01    0    0
  -16    1    3    3    0    0    0.2460603523E+02    0.1648077583E+02   -0.2072192955E+02    0.3614514160E+02    0.0000000000E+00    0    0
   16    1    4    4    0    0   -0.2837798500E+02   -0.1034317493E+02    0.2345153427E+02    0.3823958588E+02    0.0000000000E+00    0    0
  -15    2    4    4    0    0    0.2684306335E+02    0.1073137283E+02   -0.3296508789E+02    0.4388128662E+02    0.1777029991E+01    0    0
   16    1    6    6    0    0   -0.7062459946E+01   -0.4589710236E+01    0.9473147392E+01    0.1267613125E+02    0.1220703125E-03    0    0
 -323    2    6    6    0    0   -0.1600949287E+02   -0.1227985954E+02    0.2043519211E+02    0.2873116493E+02    0.8854383230E+00    0    0
 -211    1   11   11    0    0   -0.5651178837E+01   -0.4588000774E+01    0.7089926720E+01    0.1016228867E+02    0.1395681202E+00    0    0
  310    1   11   11    0    0   -0.1035831356E+02   -0.7691858768E+01    0.1334526634E+02    0.1856887817E+02    0.4977199435E+00    0    0
  -16    1    9    9    0    0    0.3387866497E+01    0.1270442247E+01   -0.4329243660E+01    0.5642164230E+01    0.4315837214E-04    0    0
   24    2    9    9    0    0    0.2345625305E+02    0.9461352348E+01   -0.2863714027E+02    0.3824084854E+02    0.1601139426E+01    0    0
  211    1   15   15    0    0    0.7248757839E+01    0.3156021118E+01   -0.8907602310E+01    0.1191091156E+02    0.1395679414E+00    0    0
  211    1   15   15    0    0    0.3710849524E+01    0.1174178600E+01   -0.4634626389E+01    0.6053787231E+01    0.1395679861E+00    0    0
  211    1   15   15    0    0    0.4628747463E+01    0.1841373920E+01   -0.5491817951E+01    0.7415894985E+01    0.1395679712E+00    0    0
 -211    1   15   15    0    0    0.3569220543E+01    0.1559802294E+01   -0.4553901196E+01    0.5994148254E+01    0.1395679861E+00    0    0
 -211    1   15   15    0    0    0.2234695196E+01    0.1061924100E+01   -0.2765826225E+01    0.3713599205E+01    0.1395679861E+00    0    0
  111    1   15   15    0    0    0.2063981533E+01    0.6680523157E+00   -0.2283367157E+01    0.3152506113E+01    0.1349639446E+00    0    0
</event>
<event>
   17 9999    1    0.9119999695E+02    0.7565275169E-02    0.1185000000E+00
   11   -1    0    0    0    0    0.0000000000E+00    0.0000000000E+00    0.8000000000E+02    0.8000000000E+02    0.5109988851E-03    0    0
  -11   -1    0    0    0    0    0.0000000000E+00    0.0000000000E+00   -0.8000000000E+02    0.8000000000E+02    0.5109988851E-03    0    0
  -24    2    1    2    0    0    0.6418883324E+01    0.4563828468E+01   -0.1079357815E+02    0.7943193054E+02    0.7830005646E+02    0    0
   24    2    1    2    0    0   -0.6418883324E+01   -0.4563828468E+01    0.1079357815E+02    0.8056806946E+02    0.7945239258E+02    0    0
   15    2    3    3    0    0   -0.6831404209E+01   -0.1145799255E+02    0.3042394066E+02    0.3326751709E+02    0.1777029991E+01    0    0
  -16    1    3    3    0    0    0.1325028706E+02    0.1602182007E+02   -0.4121751785E+02    0.4616440964E+02    0.0000000000E+00    0    0
   16    1    4    4    0    0   -0.3091920090E+02   -0.2689402580E+02    0.2071855354E+02    0.4591888428E+02    0.0000000000E+00    0    0
  -15    2    4    4    0    0    0.2450031853E+02    0.2233019638E+02   -0.9924974442E+01    0.3464918900E+02    0.1777029991E+01    0    0
   16    1    5    5    0    0   -0.8811724782E+00   -0.2724152327E+01    0.6381680012E+01    0.6994520187E+01    0.2024307178E-03    0    0
 -213    2    5    5    0    0   -0.5950500488E+01   -0.8734291077E+01    0.2404345894E+02    0.2627430725E+02    0.7449748516E+00    0    0
 -211    1   10   10    0    0   -0.3734882593E+01   -0.5001715660E+01    0.1468763065E+02    0.1595971394E+02    0.1395678520E+00    0    0
  111    1   10   10    0    0   -0.2215618372E+01   -0.3732575655E+01    0.9355829239E+01    0.1031459332E+02    0.1349640936E+00    0    0
  -16    1    8    8    0    0    0.4002493918E+00    0.2615071237E+00   -0.3696295246E-01    0.4795332551E+00    0.5749952397E-03    0    0
   24    2    8    8    0    0    0.2410103226E+02    0.2206956673E+02   -0.9888401985E+01    0.3417101669E+02    0.1397268534E+01    0    0
  111    1   14   14    0    0    0.5297076225E+01    0.4710107327E+01   -0.2037179470E+01    0.7376479149E+01    0.1349641830E+00    0    0
  111    1   14   14    0    0    0.1233370781E+02    0.1118846607E+02   -0.4735563278E+01    0.1731317139E+02    0.1349634975E+00    0    0
  321    1   14   14    0    0    0.6470247269E+01    0.6170994759E+01   -0.3115658998E+01    0.9481366158E+01    0.4936671257E+00    0    0
</event>
<event>
   18 9999    1    0.9119999695E+02    0.7565275169E-02    0.1185000000E+00
   11   -1    0    0    0    0    0.0000000000E+00    0.0000000000E+00    0.8000000000E+02    0.8000000000E+02    0.5109988851E-03    0    0
  -11   -1    0    0    0    0    0.0000000000E+00    0.0000000000E+00   -0.8000000000E+02    0.8000000000E+02    0.5109988851E-03    0    0
  -24    2    1    2    0    0    0.3282581568E+01    0.2380984497E+02    0.1320528889E+02    0.8221788025E+02    0.7750946045E+02    0    0
   24    2    1    2    0    0   -0.3282581568E+01   -0.2380984497E+02   -0.1320528889E+02    0.7778211975E+02    0.7278732300E+02    0    0
   15    2    3    3    0    0    0.2601383591E+02   -0.1830737877E+02    0.1285871601E+02    0.3435671997E+02    0.1777029991E+01    0    0
  -16    1    3    3    0    0   -0.2273125458E+02    0.4211722565E+02    0.3465726078E+00    0.4786116028E+02    0.0000000000E+00    0    0
   16    1    4    4    0    0   -0.2332912254E+02    0.6615926743E+01    0.1765902138E+02    0.2999765778E+02    0.0000000000E+00    0    0
  -15    2    4    4    0    0    0.2004654121E+02   -0.3042577171E+02   -0.3086430931E+02    0.4778446198E+02    0.1777029991E+01    0    0
   16    1    5    5    0    0    0.9899604797E+01   -0.7461820602E+01    0.5073634624E+01    0.1339487648E+02    0.3198891354E-03    0    0
*****    2    5    5    0    0    0.1611525726E+02   -0.1084628010E+02    0.7785588264E+01    0.2096319771E+02    0.1223517656E+01    0    0
  111    1   10   10    0    0    0.5214390755E+01   -0.3767224312E+01    0.2702351093E+01    0.6978736877E+01    0.1349637359E+00    0    0
  111    1   10   10    0    0    0.6697936535E+01   -0.4186073303E+01    0.2671404123E+01    0.8339075089E+01    0.1349645108E+00    0    0
 -211    1   10   10    0    0    0.4202930450E+01   -0.2892982483E+01    0.2411833525E+01    0.5645386696E+01    0.1395680159E+00    0    0
  -16    1    8    8    0    0    0.1566138625E+01   -0.3064425945E+01   -0.2993536234E+01    0.4561223030E+01    0.5964605953E-03    0    0
20213    2    8    8    0    0    0.1848118973E+02   -0.2736254311E+02   -0.2787198639E+02    0.4322511673E+02    0.1140200496E+01    0    0
  211    1   15   15    0    0    0.8259991646E+01   -0.1195196152E+02   -0.1238512707E+02    0.1909156036E+02    0.1395680904E+00    0    0
  211    1   15   15    0    0    0.8116738319E+01   -0.1192158222E+02   -0.1238291264E+02    0.1900951195E+02    0.1395683289E+00    0    0
 -211    1   15   15    0    0    0.2104456663E+01   -0.3488994837E+01   -0.3103943110E+01    0.5124038219E+01    0.1395682096E+00    0    0
</event>
<event>
   14 9999    1    0.9119999695E+02    0.7565275169E-02    0.1185000000E+00
   11   -1    0    0    0    0    0.0000000000E+00    0.0000000000E+00    0.8000000000E+02    0.8000000000E+02    0.5109988851E-03    0    0
  -11   -1    0    0    0    0    0.0000000000E+00    0.0000000000E+00   -0.8000000000E+02    0.8000000000E+02    0.5109988851E-03    0    0
  -24    2    1    2    0    0   -0.1256428623E+02    0.5313815594E+01    0.1272868729E+02    0.7987467957E+02    0.7766497040E+02    0    0
   24    2    1    2    0    0    0.1256428623E+02   -0.5313815594E+01   -0.1272868729E+02    0.8012532043E+02    0.7792271423E+02    0    0
   15    2    3    3    0    0   -0.3796171951E+02   -0.6161788464E+01    0.2845525551E+02    0.4787399292E+02    0.1777029991E+01    0    0
  -16    1    3    3    0    0    0.2539743233E+02    0.1147560406E+02   -0.1572656822E+02    0.3200068665E+02    0.0000000000E+00    0    0
   16    1    4    4    0    0    0.3208193588E+02    0.4363404274E+01    0.2196191788E+02    0.3912308502E+02    0.0000000000E+00    0    0
  -15    2    4    4    0    0   -0.1951765060E+02   -0.9677220345E+01   -0.3469060516E+02    0.4100223541E+02    0.1777029991E+01    0    0
   16    1    5    5    0    0   -0.2128869820E+02   -0.2909717560E+01    0.1586034679E+02    0.2670628738E+02    0.1095024127E-03    0    0
   11    1    5    5    0    0   -0.1115243435E+02   -0.2101640463E+01    0.7867113590E+01    0.1380887985E+02    0.4727763007E-03    0    0
  -12    1    5    5    0    0   -0.5522079468E+01   -0.1150672913E+01    0.4728914261E+01    0.7360708714E+01    0.1220703125E-03    0    0
  -16    1    8    8    0    0   -0.7291512012E+01   -0.3798168421E+01   -0.1433758259E+02    0.1652750778E+02    0.2441406250E-03    0    0
  -11    1    8    8    0    0   -0.1128564644E+02   -0.5336244583E+01   -0.1830409813E+02    0.2215584183E+02    0.5459150416E-03    0    0
   12    1    8    8    0    0   -0.9412611127E+00   -0.5431882143E+00   -0.2050292492E+01    0.2320501089E+01    0.0000000000E+00    0    0
</event>
<event>
   18 9999    1    0.9119999695E+02    0.7565275169E-02    0.1185000000E+00
   11   -1    0    0    0    0    0.0000000000E+00    0.0000000000E+00    0.8000000000E+02    0.8000000000E+02    0.5109988851E-03    0    0
  -11   -1    0    0    0    0    0.0000000000E+00    0.0000000000E+00   -0.8000000000E+02    0.8000000000E+02    0.5109988851E-03    0    0
  -24    2    1    2    0    0    0.3420481920E+01    0.4052093983E+01   -0.1568345642E+02    0.8128212738E+02    0.7957822418E+02    0    0
   24    2    1    2    0    0   -0.3326922417E+01   -0.3997836351E+01    0.1594957161E+02    0.7843058777E+02    0.7661538696E+02    0    0
   22    1    1    2    0    0   -0.9354738146E-01   -0.5424869433E-01   -0.2661325336E+00    0.2872639298E+00    0.0000000000E+00    0    0
   15    2    3    3    0    0   -0.7531810284E+01    0.2582957268E+02    0.2307887077E+02    0.3549206924E+02    0.1777029991E+01    0    0
  -16    1    3    3    0    0    0.1095229244E+02   -0.2177747726E+02   -0.3876232529E+02    0.4579005432E+02    0.0000000000E+00    0    0
   16    1    4    4    0    0   -0.3760121918E+02   -0.1435069084E+02    0.1369122696E+02    0.4251169205E+02    0.0000000000E+00    0    0
  -15    2    4    4    0    0    0.3427429962E+02    0.1035285473E+02    0.2258344412E+01    0.3591889572E+02    0.1777029991E+01    0    0
   16    1    6    6    0    0   -0.1103123426E+01    0.2894634008E+01    0.2646566153E+01    0.4074322224E+01    0.2595115802E-03    0    0
  -24    2    6    6    0    0   -0.6428983212E+01    0.2293595505E+02    0.2043321228E+02    0.3141914558E+02    0.1502220154E+01    0    0
 -211    1   11   11    0    0   -0.5113033056E+00    0.2545831203E+01    0.2259267092E+01    0.3444772005E+01    0.1395678967E+00    0    0
  130    1   11   11    0    0   -0.1929987431E+01    0.8016025543E+01    0.6761535168E+01    0.1067462444E+02    0.4977200627E+00    0    0
  111    1   11   11    0    0   -0.3987692595E+01    0.1237409878E+02    0.1141241074E+02    0.1729974937E+02    0.1349638253E+00    0    0
  -16    1    9    9    0    0    0.1548416042E+02    0.5312344551E+01    0.1299664497E+01    0.1642161369E+02    0.2441406250E-03    0    0
  323    2    9    9    0    0    0.1879148674E+02    0.5040916920E+01    0.9587686658E+00    0.1949869728E+02    0.8655178547E+00    0    0
  211    1   16   16    0    0    0.3475940943E+01    0.9730145335E+00    0.4017642736E+00    0.3634531021E+01    0.1395679414E+00    0    0
  310    1   16   16    0    0    0.1531554508E+02    0.4067902565E+01    0.5570044518E+00    0.1586416531E+02    0.4977199733E+00    0    0
</event>
<event>
   20 9999    1    0.9119999695E+02    0.7565275169E-02    0.1185000000E+00
   11   -1    0    0    0    0    0.0000000000E+00    0.0000000000E+00    0.8000000000E+02    0.8000000000E+02    0.5109988851E-03    0    0
  -11   -1    0    0    0    0    0.0000000000E+00    0.0000000000E+00   -0.8000000000E+02    0.8000000000E+02    0.5109988851E-03    0    0
  -24    2    1    2    0    0   -0.1114327145E+02    0.4338021755E+01    0.1030095387E+02    0.8065415192E+02    0.7909482574E+02    0    0
   24    2    1    2    0    0    0.1114315224E+02   -0.4338132381E+01   -0.1028774357E+02    0.7933262634E+02    0.7774855804E+02    0    0
   22    1    1    2    0    0    0.7325482875E-04    0.7563266263E-04   -0.6662450265E-02    0.6663281936E-02    0.0000000000E+00    0    0
   22    1    1    2    0    0   -0.1398474433E-04   -0.9759569366E-05   -0.6338722073E-02    0.6338744890E-02    0.0000000000E+00    0    0
   22    1    1    2    0    0    0.5984192467E-04    0.4500876457E-04   -0.2092566865E-03    0.2222503244E-03    0.0000000000E+00    0    0
   15    2    3    3    0    0   -0.3051770592E+02   -0.1354696083E+02    0.3216870499E+02    0.4639864349E+02    0.1777029991E+01    0    0
  -16    1    3    3    0    0    0.1937443352E+02    0.1788498306E+02   -0.2186775208E+02    0.3425550842E+02    0.0000000000E+00    0    0
   16    1    4    4    0    0   -0.3136721039E+02   -0.6973288953E-01    0.8691041946E+01    0.3254905701E+02    0.0000000000E+00    0    0
  -15    2    4    4    0    0    0.4251036453E+02   -0.4268399715E+01   -0.1897878456E+02    0.4678356934E+02    0.1777029991E+01    0    0
   16    1    8    8    0    0   -0.2424893951E+02   -0.1068212032E+02    0.2563512802E+02    0.3686839676E+02    0.8631674427E-04    0    0
 -213    2    8    8    0    0   -0.6269967079E+01   -0.2865373850E+01    0.6534844398E+01    0.9532073975E+01    0.7958500385E+00    0    0
 -211    1   13   13    0    0   -0.6255533695E+00   -0.8709166199E-01    0.5965163708E+00    0.8798937201E+00    0.1395679414E+00    0    0
  111    1   13   13    0    0   -0.5644412994E+01   -0.2778281927E+01    0.5938327312E+01    0.8652178764E+01    0.1349641383E+00    0    0
  -16    1   11   11    0    0    0.1401658249E+02   -0.1231004119E+01   -0.6091252327E+01    0.1533242702E+02    0.6118755555E-03    0    0
   24    2   11   11    0    0    0.2849545288E+02   -0.3037563324E+01   -0.1288827896E+02    0.3145298195E+02    0.1401692033E+01    0    0
  111    1   17   17    0    0    0.7086646557E+01   -0.9359365106E+00   -0.3345477104E+01    0.7893476009E+01    0.1349641383E+00    0    0
  111    1   17   17    0    0    0.1803808570E+01   -0.3830999434E+00   -0.9631024599E+00    0.2084771633E+01    0.1349636465E+00    0    0
  321    1   17   17    0    0    0.1960499382E+02   -0.1718526483E+01   -0.8579697609E+01    0.2147472954E+02    0.4936668873E+00    0    0
</event>
<event>
   20 9999    1    0.9119999695E+02    0.7565275169E-02    0.1185000000E+00
   11   -1    0    0    0    0    0.0000000000E+00    0.0000000000E+00    0.8000000000E+02    0.8000000000E+02    0.5109988851E-03    0    0
  -11   -1    0    0    0    0    0.0000000000E+00    0.0000000000E+00   -0.8000000000E+02    0.8000000000E+02    0.5109988851E-03    0    0
  -24    2    1    2    0    0    0.3011910057E+02   -0.1035521603E+02    0.1829759598E+02    0.6431197357E+02    0.5279049683E+02    0    0
   24    2    1    2    0    0   -0.3013876915E+02    0.1036622429E+02   -0.8400646210E+01    0.8572551727E+02    0.7913589478E+02    0    0
   22    1    1    2    0    0    0.3757521277E-02   -0.5606421735E-02   -0.9614374161E+01    0.9614377022E+01    0.0000000000E+00    0    0
   22    1    1    2    0    0    0.1741088927E-03   -0.2797368870E-04   -0.3132383525E+00    0.3132384121E+00    0.0000000000E+00    0    0
   22    1    1    2    0    0    0.1573647000E-01   -0.5374370608E-02    0.3052630834E-01    0.3476170078E-01    0.0000000000E+00    0    0
   22    1    1    2    0    0   -0.4432994274E-06    0.3202186178E-06    0.1368707744E-03    0.1368718658E-03    0.0000000000E+00    0    0
   15    2    3    3    0    0    0.7982484341E+01    0.1961631393E+02    0.1668001938E+02    0.2701667595E+02    0.1777029991E+01    0    0
  -16    1    3    3    0    0    0.2213661766E+02   -0.2997153091E+02    0.1617576122E+01    0.3729529572E+02    0.0000000000E+00    0    0
   16    1    4    4    0    0   -0.2796632767E+02   -0.2770145178E+01    0.3232991791E+02    0.4283705139E+02    0.0000000000E+00    0    0
  -15    2    4    4    0    0   -0.2172441721E+01    0.1313636875E+02   -0.4073056412E+02    0.4288846588E+02    0.1777029991E+01    0    0
   16    1    9    9    0    0    0.6111949310E-01    0.9315992706E-02    0.1142401099E+00    0.1298970133E+00    0.1918000053E-03    0    0
  -24    2    9    9    0    0    0.7921678543E+01    0.1960777092E+02    0.1656643486E+02    0.2688784027E+02    0.1136466384E+01    0    0
 -211    1   14   14    0    0    0.3371063471E+00    0.1040130258E+01    0.7567098737E+00    0.1337011933E+01    0.1395681649E+00    0    0
  111    1   14   14    0    0    0.3888139248E+01    0.9142219543E+01    0.7382040024E+01    0.1237782383E+02    0.1349642873E+00    0    0
   22    1   14   14    0    0    0.3696433067E+01    0.9425420761E+01    0.8427685738E+01    0.1317300510E+02    0.2283726499E-03    0    0
  -16    1   12   12    0    0   -0.9201386571E+00    0.2615192890E+01   -0.7044382095E+01    0.7570284843E+01    0.2283726499E-03    0    0
  -11    1   12   12    0    0   -0.1220446587E+01    0.8173339844E+01   -0.2620236588E+02    0.2747465897E+02    0.5269945832E-03    0    0
   12    1   12   12    0    0   -0.3194206208E-01    0.2348354340E+01   -0.7485422134E+01    0.7845211029E+01    0.1726334885E-03    0    0
</event>
<event>
   15 9999    1    0.9119999695E+02    0.7565275169E-02    0.1185000000E+00
   11   -1    0    0    0    0    0.0000000000E+00    0.0000000000E+00    0.8000000000E+02    0.8000000000E+02    0.5109988851E-03    0    0
  -11   -1    0    0    0    0    0.0000000000E+00    0.0000000000E+00   -0.8000000000E+02    0.8000000000E+02    0.5109988851E-03    0    0
  -24    2    1    2    0    0    0.1310771942E+01   -0.1003696251E+02    0.2080229568E+02    0.8326718140E+02    0.7998892975E+02    0    0
   24    2    1    2    0    0   -0.1310771942E+01    0.1003696251E+02   -0.2080229568E+02    0.7673281860E+02    0.7316236115E+02    0    0
   15    2    3    3    0    0    0.3877117920E+02    0.6014727116E+01    0.5155256271E+01    0.3961206818E+02    0.1777029991E+01    0    0
  -16    1    3    3    0    0   -0.3746040726E+02   -0.1605168915E+02    0.1564704037E+02    0.4365511322E+02    0.0000000000E+00    0    0
   16    1    4    4    0    0    0.3266130447E+02    0.1150511360E+02   -0.2459214973E+02    0.4247237015E+02    0.0000000000E+00    0    0
  -15    2    4    4    0    0   -0.3397207642E+02   -0.1468151569E+01    0.3789853573E+01    0.3426044846E+02    0.1777029991E+01    0    0
   16    1    5    5    0    0    0.5871095181E+01    0.8908113241E+00    0.6397732496E+00    0.5972655296E+01    0.2796982299E-03    0    0
  -24    2    5    5    0    0    0.3290161133E+02    0.5124152660E+01    0.4515686035E+01    0.3364097214E+02    0.1597042561E+01    0    0
 -321    1   10   10    0    0    0.1119707966E+02    0.1592839241E+01    0.1597200632E+01    0.1143269348E+02    0.4936670065E+00    0    0
 -211    1   10   10    0    0    0.1259297276E+02    0.2023774147E+01    0.1333523154E+01    0.1282483482E+02    0.1395678520E+00    0    0
  321    1   10   10    0    0    0.9111562729E+01    0.1507539511E+01    0.1584962964E+01    0.9383446693E+01    0.4936670959E+00    0    0
  -16    1    8    8    0    0   -0.1849267769E+02   -0.7431156039E+00    0.1179551601E+01    0.1854515266E+02    0.0000000000E+00    0    0
  211    1    8    8    0    0   -0.1548073864E+02   -0.7250938416E+00    0.2610451460E+01    0.1571664619E+02    0.1395679563E+00    0    0
</event>
<event>
   15 9999    1    0.9119999695E+02    0.7565275169E-02    0.1185000000E+00
   11   -1    0    0    0    0    0.0000000000E+00    0.0000000000E+00    0.8000000000E+02    0.8000000000E+02    0.5109988851E-03    0    0
  -11   -1    0    0    0    0    0.0000000000E+00    0.0000000000E+00   -0.8000000000E+02    0.8000000000E+02    0.5109988851E-03    0    0
  -24    2    1    2    0    0   -0.1188074684E+02   -0.2267819786E+02    0.2451631927E+02    0.8735431671E+02    0.7983905029E+02    0    0
   24    2    1    2    0    0    0.1188074684E+02    0.2267819786E+02   -0.2451504326E+02    0.7264440155E+02    0.6340953827E+02    0    0
   22    1    1    2    0    0   -0.6227434124E-09    0.1421302098E-07   -0.1275538350E-02    0.1275538350E-02    0.0000000000E+00    0    0
   15    2    3    3    0    0    0.2632713318E+02   -0.1080199242E+01   -0.1316441154E+02    0.2950837708E+02    0.1777029991E+01    0    0
  -16    1    3    3    0    0   -0.3820787811E+02   -0.2159799957E+02    0.3768073273E+02    0.5784594345E+02    0.0000000000E+00    0    0
   16    1    4    4    0    0    0.2544776154E+02    0.3915185928E+02   -0.1978096390E+02    0.5071235657E+02    0.0000000000E+00    0    0
  -15    2    4    4    0    0   -0.1356701469E+02   -0.1647365952E+02   -0.4734080791E+01    0.2193204880E+02    0.1777029991E+01    0    0
   16    1    6    6    0    0    0.2330843735E+02   -0.1277028561E+01   -0.1157021618E+02    0.2605348206E+02    0.3885751939E-03    0    0
 -321    1    6    6    0    0    0.3019732952E+01    0.1967867613E+00   -0.1594714284E+01    0.3456057549E+01    0.4936669767E+00    0    0
  -16    1    9    9    0    0   -0.9717053413E+01   -0.1078824425E+02   -0.3243433714E+01    0.1487706947E+02    0.8831662853E-04    0    0
  213    2    9    9    0    0   -0.3850496054E+01   -0.5686064720E+01   -0.1490833521E+01    0.7055842400E+01    0.6361388564E+00    0    0
  211    1   13   13    0    0   -0.3340336800E+01   -0.4704541683E+01   -0.1103321195E+01    0.5875998974E+01    0.1395679414E+00    0    0
  111    1   13   13    0    0   -0.5101594925E+00   -0.9815235138E+00   -0.3875123858E+00    0.1179844141E+01    0.1349638849E+00    0    0
</event>
<event>
   20 9999    1    0.9119999695E+02    0.7565275169E-02    0.1185000000E+00
   11   -1    0    0    0    0    0.0000000000E+00    0.0000000000E+00    0.8000000000E+02    0.8000000000E+02    0.5109988851E-03    0    0
  -11   -1    0    0    0    0    0.0000000000E+00    0.0000000000E+00   -0.8000000000E+02    0.8000000000E+02    0.5109988851E-03    0    0
  -24    2    1    2    0    0    0.2446666002E+01   -0.1137349987E+02    0.2258822632E+02    0.6903215790E+02    0.6418620300E+02    0    0
   24    2    1    2    0    0   -0.2441350937E+01    0.1137308979E+02   -0.2448895836E+02    0.8858663940E+02    0.8433609009E+02    0    0
   22    1    1    2    0    0   -0.5255941767E-02    0.5054924986E-03    0.2139065027E+01    0.2139071465E+01    0.0000000000E+00    0    0
   22    1    1    2    0    0   -0.5938400500E-04   -0.9513350960E-04   -0.2402312160E+00    0.2402312458E+00    0.0000000000E+00    0    0
   22    1    1    2    0    0    0.6188570012E-07   -0.5561040339E-07    0.1784987282E-02    0.1784987282E-02    0.0000000000E+00    0    0
   22    1    1    2    0    0    0.2086782018E-06   -0.2597070363E-06    0.1133185360E-03    0.1133190235E-03    0.0000000000E+00    0    0
   15    2    3    3    0    0    0.1875393105E+02   -0.3087680817E+02    0.2426404572E+02    0.4355443573E+02    0.1777029991E+01    0    0
  -16    1    3    3    0    0   -0.1630726624E+02    0.1950330925E+02   -0.1675818563E+01    0.2547772217E+02    0.0000000000E+00    0    0
   16    1    4    4    0    0    0.1742389297E+02   -0.4025320530E+01    0.2635047340E+02    0.3184560776E+02    0.0000000000E+00    0    0
  -15    2    4    4    0    0   -0.1986524391E+02    0.1539841080E+02   -0.5083943176E+02    0.5674103165E+02    0.1777029991E+01    0    0
   16    1    9    9    0    0    0.1474815726E+01   -0.2468654394E+01    0.1626880884E+01    0.3303948879E+01    0.4139605735E-03    0    0
  -24    2    9    9    0    0    0.1727985382E+02   -0.2840936852E+02    0.2263811874E+02    0.4025220108E+02    0.1438656092E+01    0    0
 -211    1   14   14    0    0    0.9324061394E+01   -0.1491017628E+02    0.1236270046E+02    0.2149668121E+02    0.1395683289E+00    0    0
 -211    1   14   14    0    0    0.9037469625E+00   -0.1346700430E+01    0.9941312671E+00    0.1907390118E+01    0.1395679116E+00    0    0
  211    1   14   14    0    0    0.5749773979E+01   -0.9620430946E+01    0.7281469345E+01    0.1336607170E+02    0.1395678967E+00    0    0
  111    1   14   14    0    0    0.1302268028E+01   -0.2532057285E+01    0.1999814510E+01    0.3482052565E+01    0.1349639595E+00    0    0
  -16    1   12   12    0    0   -0.1078523159E+02    0.9208543777E+01   -0.2737003517E+02    0.3082592010E+02    0.2990099892E-03    0    0
  211    1   12   12    0    0   -0.9080794334E+01    0.6190474033E+01   -0.2347140121E+02    0.2591734886E+02    0.1395676434E+00    0    0
</event>
<event>
   19 9999    1    0.9119999695E+02    0.7565275169E-02    0.1185000000E+00
   11   -1    0    0    0    0    0.0000000000E+00    0.0000000000E+00    0.8000000000E+02    0.8000000000E+02    0.5109988851E-03    0    0
  -11   -1    0    0    0    0    0.0000000000E+00    0.0000000000E+00   -0.8000000000E+02    0.8000000000E+02    0.5109988851E-03    0    0
  -24    2    1    2    0    0   -0.1562381458E+02    0.6191955090E+01   -0.5969243050E+01    0.8143221283E+02    0.7945520020E+02    0    0
   24    2    1    2    0    0    0.1562622261E+02   -0.6192463398E+01    0.6222640514E+01    0.7831437683E+02    0.7623578644E+02    0    0
   22    1    1    2    0    0   -0.2408301458E-02    0.5088538164E-03   -0.2261194140E+00    0.2261328101E+00    0.0000000000E+00    0    0
   22    1    1    2    0    0    0.3655633520E-06   -0.2763186160E-06   -0.2727813460E-01    0.2727813460E-01    0.0000000000E+00    0    0
   15    2    3    3    0    0    0.2641376686E+02    0.1126285934E+02    0.1684128189E+02    0.3333655167E+02    0.1777029991E+01    0    0
  -16    1    3    3    0    0   -0.4203758240E+02   -0.5070904255E+01   -0.2281052589E+02    0.4809565735E+02    0.0000000000E+00    0    0
   16    1    4    4    0    0   -0.2580490303E+02   -0.1120000458E+02   -0.1454235935E+02    0.3166722679E+02    0.0000000000E+00    0    0
  -15    2    4    4    0    0    0.4143112564E+02    0.5007540703E+01    0.2076499939E+02    0.4664715195E+02    0.1777029991E+01    0    0
   16    1    7    7    0    0    0.7381837368E+01    0.3195794106E+01    0.4340095520E+01    0.9140079498E+01    0.1495049946E-03    0    0
  -24    2    7    7    0    0    0.1903296661E+02    0.8067507744E+01    0.1250184917E+02    0.2419778252E+02    0.1377655625E+01    0    0
 -321    1   12   12    0    0    0.7959592342E+01    0.2893436909E+01    0.5276103497E+01    0.9990398407E+01    0.4936669767E+00    0    0
  310    1   12   12    0    0    0.1107337570E+02    0.5174071789E+01    0.7225746155E+01    0.1420738602E+02    0.4977200329E+00    0    0
  -16    1   10   10    0    0    0.9841621399E+01    0.1052797198E+01    0.4400238037E+01    0.1083180428E+02    0.2114319796E-03    0    0
   24    2   10   10    0    0    0.3159113503E+02    0.3954940557E+01    0.1636557961E+02    0.3581718063E+02    0.1181954384E+01    0    0
  211    1   16   16    0    0    0.3520631075E+01    0.2664345205E+00    0.1988941550E+01    0.4054774761E+01    0.1395679861E+00    0    0
  111    1   16   16    0    0    0.3112950563E+01    0.5781025290E+00    0.1750737786E+01    0.3620491743E+01    0.1349641681E+00    0    0
   22    1   16   16    0    0    0.2495755196E+02    0.3110403061E+01    0.1262589836E+02    0.2814191437E+02    0.2879022504E-03    0    0
</event>
<event>
   18 9999    1    0.9119999695E+02    0.7565275169E-02    0.1185000000E+00
   11   -1    0    0    0    0    0.0000000000E+00    0.0000000000E+00    0.8000000000E+02    0.8000000000E+02    0.5109988851E-03    0    0
  -11   -1    0    0    0    0    0.0000000000E+00    0.0000000000E+00   -0.8000000000E+02    0.8000000000E+02    0.5109988851E-03    0    0
  -24    2    1    2    0    0   -0.1895109773E+01    0.8878172874E+01    0.5859005451E+01    0.8263942719E+02    0.8193005371E+02    0    0
   24    2    1    2    0    0    0.1895109773E+01   -0.8878172874E+01   -0.5859005451E+01    0.7736057281E+02    0.7660232544E+02    0    0
   15    2    3    3    0    0   -0.1563189411E+02    0.3955673599E+02    0.1890948486E+02    0.4658130264E+02    0.1777029991E+01    0    0
  -16    1    3    3    0    0    0.1373678398E+02   -0.3067856216E+02   -0.1305047894E+02    0.3605812454E+02    0.0000000000E+00    0    0
   16    1    4    4    0    0    0.2503495598E+02   -0.1691412926E+01    0.2676267433E+02    0.3668583679E+02    0.0000000000E+00    0    0
  -15    2    4    4    0    0   -0.2313984680E+02   -0.7186759472E+01   -0.3262168121E+02    0.4067473221E+02    0.1777029991E+01    0    0
   16    1    5    5    0    0   -0.1762765273E-01    0.8668345399E-02    0.1916261204E-01    0.2744188346E-01    0.1575151255E-03    0    0
  -24    2    5    5    0    0   -0.1561488247E+02    0.3954962540E+02    0.1889106750E+02    0.4655569839E+02    0.1600969791E+01    0    0
 -321    1   10   10    0    0   -0.2562983036E+01    0.6667245865E+01    0.3329279661E+01    0.7896129608E+01    0.4936670661E+00    0    0
 -211    1   10   10    0    0   -0.6192541122E+01    0.1630517578E+02    0.7672551155E+01    0.1905502129E+02    0.1395680457E+00    0    0
  321    1   10   10    0    0   -0.6859357834E+01    0.1657720184E+02    0.7889235973E+01    0.1960454369E+02    0.4936670661E+00    0    0
  -16    1    8    8    0    0   -0.2793626785E+01   -0.1058191180E+01   -0.4313783646E+01    0.5247175217E+01    0.3398293629E-03    0    0
   24    2    8    8    0    0   -0.2034713173E+02   -0.6128851414E+01   -0.2830918121E+02    0.3542915726E+02    0.1499002099E+01    0    0
  321    1   15   15    0    0   -0.7688943386E+01   -0.2636392832E+01   -0.1089269447E+02    0.1360018063E+02    0.4936671555E+00    0    0
  211    1   15   15    0    0   -0.3230503559E+01   -0.1049657822E+01   -0.4168584347E+01    0.5379080772E+01    0.1395680457E+00    0    0
 -321    1   15   15    0    0   -0.9427683830E+01   -0.2442800760E+01   -0.1324790287E+02    0.1644989777E+02    0.4936670065E+00    0    0
</event>
<event>
   23 9999    1    0.9119999695E+02    0.7565275169E-02    0.1185000000E+00
   11   -1    0    0    0    0    0.0000000000E+00    0.0000000000E+00    0.8000000000E+02    0.8000000000E+02    0.5109988851E-03    0    0
  -11   -1    0    0    0    0    0.0000000000E+00    0.0000000000E+00   -0.8000000000E+02    0.8000000000E+02    0.5109988851E-03    0    0
  -24    2    1    2    0    0   -0.5668970108E+01   -0.2658620644E+02   -0.2175140381E+01    0.8553729248E+02    0.8107363129E+02    0    0
   24    2    1    2    0    0    0.5859252930E+01    0.2653399086E+02    0.5357531548E+01    0.7127410126E+02    0.6567275238E+02    0    0
   22    1    1    2    0    0   -0.1908035576E+00    0.5225396529E-01   -0.3174471378E+01    0.3180629730E+01    0.0000000000E+00    0    0
   22    1    1    2    0    0   -0.4276050822E-04   -0.1627434472E-05   -0.5326331593E-02    0.5326503422E-02    0.0000000000E+00    0    0
   22    1    1    2    0    0    0.5636871210E-03   -0.3618120536E-04   -0.2593033947E-02    0.2653842093E-02    0.0000000000E+00    0    0
   15    2    3    3    0    0    0.3294934464E+02   -0.5572454333E+00   -0.1638615036E+02    0.3684608078E+02    0.1777029991E+01    0    0
  -16    1    3    3    0    0   -0.3861831665E+02   -0.2602896118E+02    0.1421100903E+02    0.4869121170E+02    0.0000000000E+00    0    0
   16    1    4    4    0    0    0.6464297295E+01    0.3016229346E-01    0.3259119797E+02    0.3322610855E+02    0.0000000000E+00    0    0
  -15    2    4    4    0    0   -0.6050444245E+00    0.2650382805E+02   -0.2723366737E+02    0.3804798889E+02    0.1777029991E+01    0    0
   16    1    8    8    0    0    0.1207152939E+02   -0.2233617455E+00   -0.5855351925E+01    0.1341852665E+02    0.9650505672E-04    0    0
  -24    2    8    8    0    0    0.2087911606E+02   -0.3339056671E+00   -0.1053144360E+02    0.2342900658E+02    0.1399314642E+01    0    0
 -211    1   13   13    0    0    0.1227714181E+01    0.9079550393E-02   -0.6725006104E+00    0.1406805158E+01    0.1395680308E+00    0    0
 -211    1   13   13    0    0    0.4625636578E+01   -0.2418628633E+00   -0.2115401506E+01    0.5094056606E+01    0.1395680159E+00    0    0
 -211    1   13   13    0    0    0.9690853119E+01   -0.2103197426E+00   -0.4996557713E+01    0.1090605068E+02    0.1395680159E+00    0    0
  211    1   13   13    0    0    0.2154464722E+01    0.5332828313E-01   -0.1335895061E+01    0.2539420605E+01    0.1395680308E+00    0    0
  211    1   13   13    0    0    0.3180446863E+01    0.5586910993E-01   -0.1411089182E+01    0.3482673645E+01    0.1395680308E+00    0    0
  -16    1   11   11    0    0   -0.1411821395E+00    0.3306424379E+01   -0.3467316151E+01    0.4793188572E+01    0.5094584776E-03    0    0
   24    2   11   11    0    0   -0.4638861120E+00    0.2319844627E+02   -0.2376742363E+02    0.3325629807E+02    0.1645545363E+01    0    0
  321    1   20   20    0    0   -0.6512234211E+00    0.9419515610E+01   -0.9722300529E+01    0.1356164455E+02    0.4936671555E+00    0    0
  111    1   20   20    0    0    0.1920218766E+00    0.8644862175E+01   -0.8835935593E+01    0.1236375713E+02    0.1349640638E+00    0    0
  310    1   20   20    0    0   -0.4684550688E-02    0.5134068966E+01   -0.5209187031E+01    0.7330896378E+01    0.4977200329E+00    0    0
</event>
<event>
   21 9999    1    0.9119999695E+02    0.7565275169E-02    0.1185000000E+00
   11   -1    0    0    0    0    0.0000000000E+00    0.0000000000E+00    0.8000000000E+02    0.8000000000E+02    0.5109988851E-03    0    0
  -11   -1    0    0    0    0    0.0000000000E+00    0.0000000000E+00   -0.8000000000E+02    0.8000000000E+02    0.5109988851E-03    0    0
  -24    2    1    2    0    0   -0.1131606102E+02    0.1155176353E+02   -0.1838169813E+01    0.7901669312E+02    0.7732245636E+02    0    0
   24    2    1    2    0    0    0.1131569481E+02   -0.1155305481E+02    0.1839907765E+01    0.8098110962E+02    0.7932865906E+02    0    0
   22    1    1    2    0    0    0.3667001147E-03    0.1291713677E-02   -0.1737944083E-02    0.2196233720E-02    0.0000000000E+00    0    0
   15    2    3    3    0    0    0.1487601566E+02   -0.8563027382E+01    0.2905613136E+02    0.3379405212E+02    0.1777029991E+01    0    0
  -16    1    3    3    0    0   -0.2619207764E+02    0.2011479187E+02   -0.3089430046E+02    0.4522264481E+02    0.0000000000E+00    0    0
   16    1    4    4    0    0    0.2786923790E+02    0.1849086380E+02    0.2304332733E+02    0.4061528397E+02    0.0000000000E+00    0    0
  -15    2    4    4    0    0   -0.1655354309E+02   -0.3004391861E+02   -0.2120342064E+02    0.4036582184E+02    0.1777029991E+01    0    0
   16    1    6    6    0    0    0.7644269466E+00   -0.2513000071E+00    0.1062477946E+01    0.1332801580E+01    0.5901818513E-03    0    0
  -24    2    6    6    0    0    0.1411217403E+02   -0.8312064171E+01    0.2799479485E+02    0.3246257782E+02    0.1366212249E+01    0    0
 -211    1   11   11    0    0    0.5086443424E+01   -0.2856182575E+01    0.9596441269E+01    0.1123124409E+02    0.1395678967E+00    0    0
  130    1   11   11    0    0    0.5015692711E+01   -0.2699321508E+01    0.9473035812E+01    0.1106479263E+02    0.4977200627E+00    0    0
  111    1   11   11    0    0    0.4010035992E+01   -0.2756559372E+01    0.8925315857E+01    0.1016653824E+02    0.1349637359E+00    0    0
  -16    1    9    9    0    0   -0.2424479485E+01   -0.4957822323E+01   -0.3164410830E+01    0.6361729145E+01    0.1431401324E-03    0    0
   24    2    9    9    0    0   -0.1412971592E+02   -0.2508728027E+02   -0.1803984451E+02    0.3400568390E+02    0.1389278531E+01    0    0
  211    1   16   16    0    0   -0.1550649047E+01   -0.2648389578E+01   -0.1905941606E+01    0.3615324736E+01    0.1395680010E+00    0    0
  211    1   16   16    0    0   -0.2906498671E+01   -0.5154411793E+01   -0.3791336060E+01    0.7029182434E+01    0.1395680308E+00    0    0
  211    1   16   16    0    0   -0.2472107172E+01   -0.3964869261E+01   -0.2985689402E+01    0.5546649456E+01    0.1395680457E+00    0    0
 -211    1   16   16    0    0   -0.5497401714E+01   -0.9541742325E+01   -0.6780184746E+01    0.1293277454E+02    0.1395680904E+00    0    0
 -211    1   16   16    0    0   -0.1703059435E+01   -0.3777868032E+01   -0.2576693296E+01    0.4881754398E+01    0.1395681351E+00    0    0
</event>
<event>
   20 9999    1    0.9119999695E+02    0.7565275169E-02    0.1185000000E+00
   11   -1    0    0    0    0    0.0000000000E+00    0.0000000000E+00    0.8000000000E+02    0.8000000000E+02    0.5109988851E-03    0    0
  -11   -1    0    0    0    0    0.0000000000E+00    0.0000000000E+00   -0.8000000000E+02    0.8000000000E+02    0.5109988851E-03    0    0
  -24    2    1    2    0    0    0.5767879009E+01    0.3357817233E+00   -0.6438429356E+01    0.8067537689E+02    0.8021023560E+02    0    0
   24    2    1    2    0    0   -0.5767876148E+01   -0.3357847929E+00    0.6698693275E+01    0.7906435394E+02    0.7856792450E+02    0    0
   22    1    1    2    0    0   -0.9502657122E-05    0.4468389761E-05   -0.1842163205E+00    0.1842163205E+00    0.0000000000E+00    0    0
   22    1    1    2    0    0    0.4652215011E-05   -0.1129580824E-05   -0.7367698848E-01    0.7367698848E-01    0.0000000000E+00    0    0
   22    1    1    2    0    0    0.2099267476E-05   -0.2717942778E-06   -0.2370816423E-02    0.2370817354E-02    0.0000000000E+00    0    0
   15    2    3    3    0    0   -0.6042634487E+01    0.2847356415E+02    0.2385532188E+02    0.3767613983E+02    0.1777029991E+01    0    0
  -16    1    3    3    0    0    0.1181051350E+02   -0.2813778305E+02   -0.3029375267E+02    0.4299923706E+02    0.0000000000E+00    0    0
   16    1    4    4    0    0   -0.1248819232E+01    0.2994691467E+02    0.2855982018E+02    0.4140097427E+02    0.0000000000E+00    0    0
  -15    2    4    4    0    0   -0.4519057274E+01   -0.3028269958E+02   -0.2186112785E+02    0.3766338348E+02    0.1777029991E+01    0    0
   16    1    8    8    0    0   -0.3337334633E+01    0.1512111759E+02    0.1294421959E+02    0.2018263626E+02    0.8631674427E-04    0    0
   11    1    8    8    0    0   -0.1265799165E+01    0.8466056824E+01    0.7288803101E+01    0.1124290943E+02    0.5390478764E-03    0    0
  -12    1    8    8    0    0   -0.1439738274E+01    0.4887511253E+01    0.3623238802E+01    0.6252077579E+01    0.2729575208E-03    0    0
  -16    1   11   11    0    0   -0.1358364463E+01   -0.6958457947E+01   -0.4613431454E+01    0.8458666801E+01    0.4228639591E-03    0    0
   24    2   11   11    0    0   -0.3160870552E+01   -0.2332543373E+02   -0.1724855614E+02    0.2920619965E+02    0.1192668915E+01    0    0
  111    1   16   16    0    0   -0.2239447683E+00   -0.1699340820E+01   -0.1394883275E+01    0.2214006662E+01    0.1349641234E+00    0    0
  111    1   16   16    0    0   -0.1323141336E+01   -0.1027356052E+02   -0.7591306686E+01    0.1284300995E+02    0.1349632442E+00    0    0
  111    1   16   16    0    0   -0.4710651636E+00   -0.3648532629E+01   -0.2997190714E+01    0.4747110844E+01    0.1349639744E+00    0    0
  211    1   16   16    0    0   -0.1142719269E+01   -0.7704000473E+01   -0.5265175343E+01    0.9402072906E+01    0.1395679563E+00    0    0
</event>
<event>
   18 9999    1    0.9119999695E+02    0.7565275169E-02    0.1185000000E+00
   11   -1    0    0    0    0    0.0000000000E+00    0.0000000000E+00    0.8000000000E+02    0.8000000000E+02    0.5109988851E-03    0    0
  -11   -1    0    0    0    0    0.0000000000E+00    0.0000000000E+00   -0.8000000000E+02    0.8000000000E+02    0.5109988851E-03    0    0
  -24    2    1    2    0    0    0.8171845436E+01    0.2483529091E+01   -0.1135696793E+02    0.8049672699E+02    0.7923253632E+02    0    0
   24    2    1    2    0    0   -0.7716883183E+01   -0.2460314751E+01    0.1152768230E+02    0.7901678467E+02    0.7775063324E+02    0    0
   22    1    1    2    0    0   -0.4549622834E+00   -0.2321432903E-01   -0.1707141399E+00    0.4864903986E+00    0.0000000000E+00    0    0
   15    2    3    3    0    0    0.2321572495E+02    0.3022862816E+02   -0.2551944923E+02    0.4590359497E+02    0.1777029991E+01    0    0
  -16    1    3    3    0    0   -0.1504387951E+02   -0.2774509811E+02    0.1416248131E+02    0.3459313202E+02    0.0000000000E+00    0    0
   16    1    4    4    0    0   -0.2542402649E+02    0.2545247650E+02    0.2443213463E+02    0.4348722458E+02    0.0000000000E+00    0    0
  -15    2    4    4    0    0    0.1770714188E+02   -0.2791279221E+02   -0.1290445232E+02    0.3552956009E+02    0.1777029991E+01    0    0
   16    1    6    6    0    0    0.5222765923E+01    0.6035744667E+01   -0.5442750931E+01    0.9660799026E+01    0.1881229837E-03    0    0
  -24    2    6    6    0    0    0.1799387169E+02    0.2419407272E+02   -0.2007770157E+02    0.3624460220E+02    0.1193481922E+01    0    0
 -321    1   11   11    0    0    0.9464631081E+01    0.1310182095E+02   -0.1047097111E+02    0.1926452446E+02    0.4936669767E+00    0    0
  130    1   11   11    0    0    0.8529239655E+01    0.1109224892E+02   -0.9606729507E+01    0.1698007393E+02    0.4977200329E+00    0    0
  -16    1    9    9    0    0    0.4832439899E+01   -0.7638035774E+01   -0.3753447294E+01    0.9786747932E+01    0.1057159898E-03    0    0
   24    2    9    9    0    0    0.1287540054E+02   -0.2027585602E+02   -0.9151513100E+01    0.2574421120E+02    0.1458748817E+01    0    0
  211    1   15   15    0    0    0.4484229088E+01   -0.7109290600E+01   -0.2993832827E+01    0.8923723221E+01    0.1395679861E+00    0    0
  310    1   15   15    0    0    0.3733942270E+01   -0.5607949257E+01   -0.2262691498E+01    0.7124529362E+01    0.4977200031E+00    0    0
  111    1   15   15    0    0    0.4657228470E+01   -0.7558616161E+01   -0.3894989252E+01    0.9695958138E+01    0.1349638999E+00    0    0
</event>
<event>
   21 9999    1    0.9119999695E+02    0.7565275169E-02    0.1185000000E+00
   11   -1    0    0    0    0    0.0000000000E+00    0.0000000000E+00    0.8000000000E+02    0.8000000000E+02    0.5109988851E-03    0    0
  -11   -1    0    0    0    0    0.0000000000E+00    0.0000000000E+00   -0.8000000000E+02    0.8000000000E+02    0.5109988851E-03    0    0
  -24    2    1    2    0    0   -0.2277926445E+02    0.6323089600E+01    0.1530847168E+02    0.7754361725E+02    0.7224809265E+02    0    0
   24    2    1    2    0    0    0.2277926445E+02   -0.6323089600E+01   -0.1530847168E+02    0.8245638275E+02    0.7749728394E+02    0    0
   15    2    3    3    0    0   -0.8589903831E+01    0.3475550461E+02   -0.9667970657E+01    0.3712625885E+02    0.1777029991E+01    0    0
  -16    1    3    3    0    0   -0.1418936157E+02   -0.2843241501E+02    0.2497644234E+02    0.4041735840E+02    0.0000000000E+00    0    0
   16    1    4    4    0    0   -0.1597165394E+02   -0.7509160995E+01    0.2228306961E+02    0.2842563057E+02    0.0000000000E+00    0    0
  -15    2    4    4    0    0    0.3875091934E+02    0.1186071396E+01   -0.3759154129E+02    0.5403075409E+02    0.1777029991E+01    0    0
   16    1    5    5    0    0   -0.5144972801E+00    0.2346117973E+01   -0.6844320893E+00    0.2497483730E+01    0.6217839546E-03    0    0
  -24    2    5    5    0    0   -0.8075743675E+01    0.3241075134E+02   -0.8983918190E+01    0.3463023376E+02    0.1693445444E+01    0    0
 -211    1   10   10    0    0   -0.2559697330E+00    0.2543900967E+01   -0.7334880829E+00    0.2663538218E+01    0.1395677924E+00    0    0
  111    1   10   10    0    0   -0.5428538322E+01    0.2172482109E+02   -0.6227520943E+01    0.2324300003E+02    0.1349644065E+00    0    0
   22    1   10   10    0    0   -0.2391235113E+01    0.8142028809E+01   -0.2022908211E+01    0.8723690987E+01    0.1364787604E-03    0    0
  -16    1    8    8    0    0    0.6900265217E+01   -0.3635247052E-01   -0.6461987972E+01    0.9453690529E+01    0.1431401324E-03    0    0
   24    2    8    8    0    0    0.3185218048E+02    0.1222470641E+01   -0.3113103485E+02    0.4457919312E+02    0.1451602459E+01    0    0
  211    1   15   15    0    0    0.1007670760E+01    0.6862830371E-01   -0.1172832370E+01    0.1554067254E+01    0.1395680159E+00    0    0
  211    1   15   15    0    0    0.6313316345E+01    0.9555196017E-01   -0.6189492702E+01    0.8842872620E+01    0.1395680159E+00    0    0
 -211    1   15   15    0    0    0.8572075844E+01    0.3778478503E+00   -0.8273786545E+01    0.1192049885E+02    0.1395680159E+00    0    0
  111    1   15   15    0    0    0.2785744190E+01    0.1449137032E+00   -0.2554248810E+01    0.3784676075E+01    0.1349640042E+00    0    0
  111    1   15   15    0    0    0.7390550137E+01    0.3000081182E+00   -0.7115581036E+01    0.1026449966E+02    0.1349640042E+00    0    0
  111    1   15   15    0    0    0.5782823086E+01    0.2355206758E+00   -0.5825093269E+01    0.8212577820E+01    0.1349640191E+00    0    0
</event>
<event>
   18 9999    1    0.9119999695E+02    0.7565275169E-02    0.1185000000E+00
   11   -1    0    0    0    0    0.0000000000E+00    0.0000000000E+00    0.8000000000E+02    0.8000000000E+02    0.5109988851E-03    0    0
  -11   -1    0    0    0    0    0.0000000000E+00    0.0000000000E+00   -0.8000000000E+02    0.8000000000E+02    0.5109988851E-03    0    0
  -24    2    1    2    0    0   -0.9149644852E+01   -0.4939987183E+01    0.6131439686E+01    0.7788607025E+02    0.7694495392E+02    0    0
   24    2    1    2    0    0    0.9149744034E+01    0.4939950943E+01   -0.6126815319E+01    0.8210894775E+02    0.8121711731E+02    0    0
   22    1    1    2    0    0   -0.1681393542E-05   -0.4063288543E-05   -0.4787347279E-02    0.4787349142E-02    0.0000000000E+00    0    0
   22    1    1    2    0    0   -0.9758769738E-04    0.4014881051E-04    0.1632239291E-03    0.1943639363E-03    0.0000000000E+00    0    0
   15    2    3    3    0    0    0.7387819290E+00    0.4425790608E+00    0.4110122681E+02    0.4114863586E+02    0.1777029991E+01    0    0
  -16    1    3    3    0    0   -0.9888426781E+01   -0.5382565975E+01   -0.3496978760E+02    0.3673743439E+02    0.0000000000E+00    0    0
   16    1    4    4    0    0   -0.3569040298E+02    0.2302095890E+01   -0.9574902534E+01    0.3702409363E+02    0.0000000000E+00    0    0
  -15    2    4    4    0    0    0.4484014893E+02    0.2637855053E+01    0.3448087454E+01    0.4508485794E+02    0.1777029991E+01    0    0
   16    1    7    7    0    0    0.4593220949E+00   -0.2726012468E+00    0.1046928215E+02    0.1048289871E+02    0.3311543842E-03    0    0
  -24    2    7    7    0    0    0.2794889212E+00    0.7151977420E+00    0.3063356400E+02    0.3066736031E+02    0.1217423439E+01    0    0
  111    1   12   12    0    0    0.2416525930E+00   -0.9751724079E-02    0.3993598938E+01    0.4003190994E+01    0.1349641085E+00    0    0
  111    1   12   12    0    0    0.2776439488E-01    0.2872115932E-01    0.2171861649E+01    0.2176417828E+01    0.1349645704E+00    0    0
  111    1   12   12    0    0    0.1142697409E+00   -0.7335672528E-01    0.4559571743E+01    0.4563589573E+01    0.1349639744E+00    0    0
 -211    1   12   12    0    0   -0.1041977778E+00    0.7695850134E+00    0.1990852928E+02    0.1992416000E+02    0.1395680159E+00    0    0
  -16    1   10   10    0    0    0.3737042618E+02    0.1934325814E+01    0.3280844927E+01    0.3756400299E+02    0.3662109375E-03    0    0
  321    1   10   10    0    0    0.7471487045E+01    0.7036331296E+00    0.1673783362E+00    0.7522628784E+01    0.4936669767E+00    0    0
</event>
<event>
   18 9999    1    0.9119999695E+02    0.7565275169E-02    0.1185000000E+00
   11   -1    0    0    0    0    0.0000000000E+00    0.0000000000E+00    0.8000000000E+02    0.8000000000E+02    0.5109988851E-03    0    0
  -11   -1    0    0    0    0    0.0000000000E+00    0.0000000000E+00   -0.8000000000E+02    0.8000000000E+02    0.5109988851E-03    0    0
  -24    2    1    2    0    0   -0.3161789703E+02   -0.2620423698E+02    0.4163389206E+01    0.8964146423E+02    0.7957326508E+02    0    0
   24    2    1    2    0    0    0.3161790848E+02    0.2620426559E+02   -0.3998460293E+01    0.7019361115E+02    0.5678731918E+02    0    0
   22    1    1    2    0    0   -0.1119461558E-04   -0.2886421862E-04   -0.1649288088E+00    0.1649288237E+00    0.0000000000E+00    0    0
   15    2    3    3    0    0   -0.3186627007E+02   -0.5294581604E+02   -0.3198209047E+01    0.6190399933E+02    0.1777029991E+01    0    0
  -16    1    3    3    0    0    0.2483718246E+00    0.2674157906E+02    0.7361598492E+01    0.2773746300E+02    0.0000000000E+00    0    0
   16    1    4    4    0    0    0.6860397339E+01    0.1166778374E+02    0.2557660866E+02    0.2893726158E+02    0.0000000000E+00    0    0
  -15    2    4    4    0    0    0.2475751114E+02    0.1453648281E+02   -0.2957506943E+02    0.4125634766E+02    0.1777029991E+01    0    0
   16    1    6    6    0    0   -0.4089094162E+01   -0.6248895645E+01   -0.7720350474E-01    0.7468289852E+01    0.4805912904E-03    0    0
  -24    2    6    6    0    0   -0.2777843094E+02   -0.4669900513E+02   -0.3121131659E+01    0.5443814850E+02    0.1154121399E+01    0    0
 -321    1   11   11    0    0   -0.1850239944E+02   -0.3103174019E+02   -0.2450765133E+01    0.3621543503E+02    0.4936669767E+00    0    0
 -211    1   11   11    0    0   -0.2568626642E+01   -0.4312850952E+01   -0.1368754357E+00    0.5023618221E+01    0.1395678073E+00    0    0
  211    1   11   11    0    0   -0.6707406044E+01   -0.1135441780E+02   -0.5334913731E+00    0.1319909763E+02    0.1395680606E+00    0    0
  -16    1    9    9    0    0    0.1576323795E+02    0.9021858215E+01   -0.1925752258E+02    0.2647122574E+02    0.1726334885E-03    0    0
  323    2    9    9    0    0    0.8995248795E+01    0.5515196800E+01   -0.1031871128E+02    0.1478674793E+02    0.9166265130E+00    0    0
  111    1   16   16    0    0    0.5597559452E+01    0.3311267376E+01   -0.6587067127E+01    0.9257690430E+01    0.1349639893E+00    0    0
  321    1   16   16    0    0    0.3397689581E+01    0.2203929663E+01   -0.3731645346E+01    0.5529057980E+01    0.4936669469E+00    0    0
</event>
<event>
   23 9999    1    0.9119999695E+02    0.7565275169E-02    0.1185000000E+00
   11   -1    0    0    0    0    0.0000000000E+00    0.0000000000E+00    0.8000000000E+02    0.8000000000E+02    0.5109988851E-03    0    0
  -11   -1    0    0    0    0    0.0000000000E+00    0.0000000000E+00   -0.8000000000E+02    0.8000000000E+02    0.5109988851E-03    0    0
  -24    2    1    2    0    0    0.1026444912E+02    0.1220845413E+02    0.7647512913E+01    0.7446977234E+02    0.7233848572E+02    0    0
   24    2    1    2    0    0   -0.9175520897E+01   -0.1333969879E+02   -0.8661377907E+01    0.8365435791E+02    0.8161430359E+02    0    0
   22    1    1    2    0    0   -0.1083086014E+01    0.1124011040E+01    0.9862264395E+00    0.1846379876E+01    0.0000000000E+00    0    0
   22    1    1    2    0    0   -0.5782040302E-02    0.7274287287E-02    0.2597595751E-01    0.2758799866E-01    0.0000000000E+00    0    0
   22    1    1    2    0    0   -0.6018820204E-04   -0.4077325502E-04    0.1782730920E-02    0.1784212538E-02    0.0000000000E+00    0    0
   22    1    1    2    0    0   -0.1268143590E-08   -0.8050892730E-09   -0.1200939296E-03    0.1200939296E-03    0.0000000000E+00    0    0
   15    2    3    3    0    0    0.2452408409E+02    0.1517196655E+02    0.3384246445E+02    0.4449819565E+02    0.1777029991E+01    0    0
  -16    1    3    3    0    0   -0.1425963593E+02   -0.2963512659E+01   -0.2619495201E+02    0.2997157097E+02    0.0000000000E+00    0    0
   16    1    4    4    0    0    0.2136245155E+02    0.1524513721E+02    0.1993193817E+02    0.3295528412E+02    0.0000000000E+00    0    0
  -15    2    4    4    0    0   -0.3053797340E+02   -0.2858483505E+02   -0.2859331703E+02    0.5069907379E+02    0.1777029991E+01    0    0
   16    1    9    9    0    0    0.1352227306E+02    0.8342996597E+01    0.1866620445E+02    0.2451294899E+02    0.4682298168E-03    0    0
  -24    2    9    9    0    0    0.1100277615E+02    0.6829566479E+01    0.1517759132E+02    0.1998699760E+02    0.1190283537E+01    0    0
 -211    1   14   14    0    0    0.2055647135E+01    0.1553754330E+01    0.2974247932E+01    0.3937698364E+01    0.1395679563E+00    0    0
 -211    1   14   14    0    0    0.5618881226E+01    0.3676336765E+01    0.7973776817E+01    0.1042534733E+02    0.1395683885E+00    0    0
  211    1   14   14    0    0    0.1674933553E+01    0.8911439776E+00    0.2120123863E+01    0.2848498583E+01    0.1395680010E+00    0    0
  111    1   14   14    0    0    0.1653314114E+01    0.7083310485E+00    0.2109441996E+01    0.2775453329E+01    0.1349639297E+00    0    0
  -16    1   12   12    0    0   -0.9920372009E+01   -0.1002955914E+02   -0.9669734955E+01    0.1710291290E+02    0.2638491278E-03    0    0
   24    2   12   12    0    0   -0.2061880302E+02   -0.1855640221E+02   -0.1892470741E+02    0.3359815979E+02    0.1103005409E+01    0    0
  211    1   20   20    0    0   -0.6833999157E+01   -0.6099384308E+01   -0.6532467842E+01    0.1125160694E+02    0.1395682991E+00    0    0
  111    1   20   20    0    0   -0.6865669727E+01   -0.5818345070E+01   -0.5707989216E+01    0.1065785694E+02    0.1349638402E+00    0    0
   22    1   20   20    0    0   -0.6919133186E+01   -0.6638671398E+01   -0.6684248924E+01    0.1168869305E+02    0.1100326917E-03    0    0
</event>
<event>
   19 9999    1    0.9119999695E+02    0.7565275169E-02    0.1185000000E+00
   11   -1    0    0    0    0    0.0000000000E+00    0.0000000000E+00    0.8000000000E+02    0.8000000000E+02    0.5109988851E-03    0    0
  -11   -1    0    0    0    0    0.0000000000E+00    0.0000000000E+00   -0.8000000000E+02    0.8000000000E+02    0.5109988851E-03    0    0
  -24    2    1    2    0    0    0.1384385490E+02    0.6457092762E+01   -0.5634885788E+01    0.6071768570E+02    0.5849392319E+02    0    0
   24    2    1    2    0    0   -0.1384139156E+02   -0.6457058907E+01    0.2021515083E+02    0.8469564819E+02    0.8081722260E+02    0    0
   22    1    1    2    0    0   -0.2641389146E-02    0.1793362608E-03   -0.1458345795E+02    0.1458345890E+02    0.0000000000E+00    0    0
   22    1    1    2    0    0    0.1779613376E-03   -0.2134729875E-03    0.3193693236E-02    0.3205763176E-02    0.0000000000E+00    0    0
   15    2    3    3    0    0    0.2280275154E+02   -0.1237436390E+02    0.1610893631E+02    0.3058996582E+02    0.1777029991E+01    0    0
  -16    1    3    3    0    0   -0.8958896637E+01    0.1883145714E+02   -0.2174382210E+02    0.3012771797E+02    0.0000000000E+00    0    0
   16    1    4    4    0    0    0.2753087044E+02    0.1797177315E+02    0.9230994582E+00    0.3289050674E+02    0.0000000000E+00    0    0
  -15    2    4    4    0    0   -0.4137226105E+02   -0.2442883110E+02    0.1929205132E+02    0.5180514526E+02    0.1777029991E+01    0    0
   16    1    7    7    0    0    0.9967200279E+01   -0.4873989105E+01    0.6315607548E+01    0.1276666546E+02    0.1220703125E-03    0    0
 -323    2    7    7    0    0    0.1283644867E+02   -0.7500861645E+01    0.9793962479E+01    0.1782450294E+02    0.8682792783E+00    0    0
  111    1   12   12    0    0    0.4802069187E+01   -0.2915155411E+01    0.3394236803E+01    0.6564835072E+01    0.1349639744E+00    0    0
 -321    1   12   12    0    0    0.8034379959E+01   -0.4585706711E+01    0.6399725914E+01    0.1125967026E+02    0.4936669171E+00    0    0
  -16    1   10   10    0    0   -0.1512656116E+02   -0.9199623108E+01    0.7110236168E+01    0.1907882118E+02    0.3156237071E-03    0    0
   24    2   10   10    0    0   -0.2624732780E+02   -0.1523016930E+02    0.1218257427E+02    0.3272836304E+02    0.1360241175E+01    0    0
  211    1   16   16    0    0   -0.1522024632E+02   -0.9127990723E+01    0.7151775837E+01    0.1913487625E+02    0.1395680010E+00    0    0
  130    1   16   16    0    0   -0.5807678223E+01   -0.3327627659E+01    0.2508214712E+01    0.7165270329E+01    0.4977201223E+00    0    0
  111    1   16   16    0    0   -0.5219404697E+01   -0.2774551153E+01    0.2522583485E+01    0.6428215981E+01    0.1349640340E+00    0    0
</event>
<event>
   14 9999    1    0.9119999695E+02    0.7565275169E-02    0.1185000000E+00
   11   -1    0    0    0    0    0.0000000000E+00    0.0000000000E+00    0.8000000000E+02    0.8000000000E+02    0.5109988851E-03    0    0
  -11   -1    0    0    0    0    0.0000000000E+00    0.0000000000E+00   -0.8000000000E+02    0.8000000000E+02    0.5109988851E-03    0    0
  -24    2    1    2    0    0   -0.4819211483E+01    0.4504163742E+01    0.1942699814E+02    0.8350225830E+02    0.8094261169E+02    0    0
   24    2    1    2    0    0    0.4819211483E+01   -0.4504163742E+01   -0.1942699814E+02    0.7649774170E+02    0.7369521332E+02    0    0
   15    2    3    3    0    0    0.3579116058E+02    0.5393990040E+01   -0.4246783257E+01    0.3648691940E+02    0.1777029991E+01    0    0
  -16    1    3    3    0    0   -0.4061037064E+02   -0.8898262978E+00    0.2367378235E+02    0.4701533890E+02    0.0000000000E+00    0    0
   16    1    4    4    0    0    0.5027499199E+01   -0.3301016998E+02    0.1062248325E+02    0.3503975296E+02    0.0000000000E+00    0    0
  -15    2    4    4    0    0   -0.2082876116E+00    0.2850600624E+02   -0.3004948235E+02    0.4145799255E+02    0.1777029991E+01    0    0
   16    1    5    5    0    0    0.1747966194E+02    0.3157133341E+01   -0.2200595856E+01    0.1789828873E+02    0.0000000000E+00    0    0
 -323    2    5    5    0    0    0.1831290627E+02    0.2237069130E+01   -0.2046354771E+01    0.1859006691E+02    0.1017850637E+01    0    0
 -211    1   10   10    0    0    0.1756210327E+01    0.4351410866E+00   -0.1600758731E+00    0.1821737051E+01    0.1395679861E+00    0    0
  130    1   10   10    0    0    0.1655669785E+02    0.1801928520E+01   -0.1886279106E+01    0.1676833153E+02    0.4977200031E+00    0    0
  -16    1    8    8    0    0    0.3623863310E-01    0.3115611315E+01   -0.4091227531E+01    0.5142615318E+01    0.4228639591E-03    0    0
  321    1    8    8    0    0   -0.2445344627E+00    0.2539151955E+02   -0.2595943832E+02    0.3631700897E+02    0.4936669767E+00    0    0
</event>
</LesHouchesEvents>
